# Residuals   
# Time        	p             	Ux            	Uy            	Uz            
1             	1.000000e+00	3.138440e-01	1.000000e+00	2.748280e-01
2             	2.906170e-01	5.983510e-01	2.568760e-01	5.943440e-01
3             	4.163260e-02	4.821120e-01	1.518350e-01	4.571670e-01
4             	5.328230e-02	3.271020e-01	9.877750e-02	2.964740e-01
5             	9.008230e-02	2.537060e-01	7.562870e-02	2.376780e-01
6             	1.308720e-01	2.147700e-01	6.084040e-02	2.079160e-01
7             	1.428020e-01	1.823560e-01	5.210400e-02	1.751090e-01
8             	1.226310e-01	1.520400e-01	4.636210e-02	1.452240e-01
9             	1.068350e-01	1.261240e-01	4.077860e-02	1.156250e-01
10            	7.925540e-02	1.154150e-01	3.458140e-02	1.038250e-01
11            	6.268880e-02	1.061120e-01	2.903930e-02	9.890390e-02
12            	5.464810e-02	9.371680e-02	2.464800e-02	8.991480e-02
13            	5.339980e-02	7.961750e-02	2.147510e-02	7.832450e-02
14            	5.276710e-02	6.915760e-02	1.923030e-02	6.843850e-02
15            	5.678910e-02	6.311060e-02	1.771330e-02	6.200600e-02
16            	6.024250e-02	5.870800e-02	1.615360e-02	5.624940e-02
17            	6.195680e-02	5.444970e-02	1.469340e-02	5.101770e-02
18            	6.367810e-02	5.039290e-02	1.327350e-02	4.715510e-02
19            	6.523840e-02	4.727100e-02	1.186360e-02	4.484210e-02
20            	6.578290e-02	4.459070e-02	1.061290e-02	4.288960e-02
21            	6.472900e-02	4.225330e-02	9.729820e-03	4.085050e-02
22            	6.367260e-02	4.017010e-02	9.128670e-03	3.942720e-02
23            	6.432070e-02	3.857140e-02	8.779830e-03	3.865420e-02
24            	6.617600e-02	3.774120e-02	8.571030e-03	3.866030e-02
25            	6.921910e-02	3.699730e-02	8.209550e-03	3.844060e-02
26            	7.228240e-02	3.598770e-02	7.801690e-03	3.741900e-02
27            	7.437740e-02	3.486000e-02	7.484070e-03	3.570070e-02
28            	7.544740e-02	3.396870e-02	7.339930e-03	3.434250e-02
29            	7.705370e-02	3.354290e-02	7.323150e-03	3.389820e-02
30            	7.750910e-02	3.311800e-02	7.354150e-03	3.384420e-02
31            	7.552370e-02	3.240380e-02	7.397070e-03	3.370510e-02
32            	7.119560e-02	3.151250e-02	7.268350e-03	3.341090e-02
33            	6.783910e-02	3.062970e-02	7.143950e-03	3.295350e-02
34            	6.553750e-02	3.001130e-02	6.900360e-03	3.196740e-02
35            	6.414090e-02	2.902440e-02	6.593260e-03	3.049680e-02
36            	6.254510e-02	2.809110e-02	6.276640e-03	2.870750e-02
37            	6.214270e-02	2.707280e-02	6.066310e-03	2.702900e-02
38            	6.156480e-02	2.679360e-02	5.903720e-03	2.614380e-02
39            	6.182660e-02	2.668390e-02	5.759290e-03	2.539500e-02
40            	6.174520e-02	2.752050e-02	5.763480e-03	2.554380e-02
41            	6.150330e-02	2.964880e-02	5.971000e-03	2.657840e-02
42            	6.229190e-02	3.241200e-02	6.401530e-03	2.885750e-02
43            	6.526220e-02	3.519690e-02	7.076530e-03	3.143950e-02
44            	6.836560e-02	3.811780e-02	7.938400e-03	3.439810e-02
45            	7.049070e-02	4.049650e-02	8.744610e-03	3.757370e-02
46            	7.420150e-02	4.282380e-02	9.313630e-03	4.047400e-02
47            	7.532810e-02	4.371200e-02	9.788420e-03	4.287350e-02
48            	7.455870e-02	4.305340e-02	1.010010e-02	4.445340e-02
49            	7.448690e-02	4.285940e-02	1.048350e-02	4.618840e-02
50            	7.297980e-02	4.234370e-02	1.051110e-02	4.604340e-02
51            	7.125180e-02	4.171820e-02	1.022410e-02	4.433830e-02
52            	6.859780e-02	4.198590e-02	9.991390e-03	4.256360e-02
53            	6.640430e-02	4.304370e-02	9.993860e-03	4.209110e-02
54            	6.780920e-02	4.300790e-02	9.756970e-03	4.117080e-02
55            	6.910980e-02	4.171860e-02	9.367120e-03	4.039920e-02
56            	7.068650e-02	4.015720e-02	8.836480e-03	3.925580e-02
57            	7.158260e-02	3.943000e-02	8.602650e-03	3.816490e-02
58            	7.219940e-02	3.954190e-02	8.555570e-03	3.708130e-02
59            	7.199560e-02	3.986090e-02	8.772670e-03	3.620590e-02
60            	7.127930e-02	4.103990e-02	9.038010e-03	3.615680e-02
61            	6.982050e-02	4.172130e-02	9.245910e-03	3.647940e-02
62            	7.038940e-02	4.158810e-02	9.377860e-03	3.730580e-02
63            	7.212880e-02	4.095160e-02	9.520160e-03	3.779050e-02
64            	7.343030e-02	4.027960e-02	9.393550e-03	3.820470e-02
65            	7.371450e-02	4.006710e-02	9.239450e-03	3.838160e-02
66            	7.346120e-02	3.957970e-02	9.104440e-03	3.810800e-02
67            	7.352080e-02	3.960890e-02	9.090180e-03	3.892400e-02
68            	7.410150e-02	4.033680e-02	9.485720e-03	4.021170e-02
69            	7.507540e-02	4.256750e-02	1.015470e-02	4.189420e-02
70            	7.883260e-02	4.564310e-02	1.101310e-02	4.452620e-02
71            	8.204140e-02	4.935040e-02	1.180860e-02	4.692000e-02
72            	8.553770e-02	5.253580e-02	1.263480e-02	4.886900e-02
73            	8.666280e-02	5.620820e-02	1.356920e-02	5.160360e-02
74            	8.852130e-02	6.004600e-02	1.442360e-02	5.468350e-02
75            	8.905650e-02	6.275190e-02	1.495650e-02	5.759230e-02
76            	8.994150e-02	6.337000e-02	1.512050e-02	5.926730e-02
77            	9.070570e-02	6.076460e-02	1.483200e-02	5.817400e-02
78            	8.985640e-02	5.795310e-02	1.430030e-02	5.731780e-02
79            	8.780710e-02	5.526310e-02	1.379920e-02	5.587290e-02
80            	8.457940e-02	5.375990e-02	1.351660e-02	5.463670e-02
81            	8.122440e-02	5.434790e-02	1.320990e-02	5.345600e-02
82            	7.697820e-02	5.413620e-02	1.291670e-02	5.157610e-02
83            	7.467300e-02	5.468010e-02	1.265680e-02	5.014610e-02
84            	7.457470e-02	5.478220e-02	1.233210e-02	4.892940e-02
85            	7.861250e-02	5.324690e-02	1.221610e-02	4.884040e-02
86            	8.002600e-02	5.212990e-02	1.206360e-02	4.884080e-02
87            	8.006990e-02	5.054260e-02	1.175390e-02	4.845570e-02
88            	7.898290e-02	4.957470e-02	1.131960e-02	4.774530e-02
89            	7.854450e-02	4.965450e-02	1.110820e-02	4.733320e-02
90            	7.822040e-02	5.032650e-02	1.100640e-02	4.785230e-02
91            	7.596430e-02	5.075890e-02	1.091310e-02	4.847430e-02
92            	7.458520e-02	4.943190e-02	1.083350e-02	4.745970e-02
93            	7.691450e-02	4.758390e-02	1.089610e-02	4.584420e-02
94            	7.852360e-02	4.592510e-02	1.072110e-02	4.425670e-02
95            	7.877010e-02	4.491900e-02	1.033830e-02	4.360640e-02
96            	7.772510e-02	4.410950e-02	1.001490e-02	4.335460e-02
97            	7.745340e-02	4.343580e-02	9.849260e-03	4.372640e-02
98            	7.821490e-02	4.398270e-02	9.903340e-03	4.428880e-02
99            	7.777570e-02	4.558950e-02	1.014890e-02	4.486740e-02
100           	7.910220e-02	4.739930e-02	1.052200e-02	4.628460e-02
101           	7.930190e-02	5.029520e-02	1.099970e-02	4.816000e-02
102           	8.120890e-02	5.388320e-02	1.170950e-02	4.994090e-02
103           	8.221730e-02	5.587890e-02	1.220440e-02	5.074500e-02
104           	8.217730e-02	5.653590e-02	1.259170e-02	5.197820e-02
105           	8.156090e-02	5.641650e-02	1.297790e-02	5.261930e-02
106           	8.034420e-02	5.533680e-02	1.335410e-02	5.344680e-02
107           	8.090700e-02	5.470160e-02	1.359870e-02	5.444720e-02
108           	7.923200e-02	5.357090e-02	1.320030e-02	5.405540e-02
109           	7.925680e-02	5.184680e-02	1.273020e-02	5.142780e-02
110           	8.054930e-02	4.880960e-02	1.197270e-02	4.825220e-02
111           	8.138220e-02	4.646000e-02	1.131680e-02	4.543340e-02
112           	8.166490e-02	4.546960e-02	1.080990e-02	4.370770e-02
113           	8.410410e-02	4.553760e-02	1.063030e-02	4.211430e-02
114           	8.498840e-02	4.618890e-02	1.052490e-02	4.216140e-02
115           	8.299330e-02	4.596030e-02	1.040740e-02	4.330440e-02
116           	7.984160e-02	4.533340e-02	1.038800e-02	4.445930e-02
117           	7.771000e-02	4.462830e-02	1.050100e-02	4.541600e-02
118           	7.634750e-02	4.434480e-02	1.079010e-02	4.653540e-02
119           	7.529900e-02	4.458610e-02	1.101810e-02	4.593410e-02
120           	7.314930e-02	4.561580e-02	1.099050e-02	4.491100e-02
121           	7.196450e-02	4.665620e-02	1.095020e-02	4.412610e-02
122           	6.998720e-02	4.756920e-02	1.116540e-02	4.405880e-02
123           	6.972630e-02	4.717480e-02	1.120610e-02	4.376140e-02
124           	6.905310e-02	4.645780e-02	1.127140e-02	4.437670e-02
125           	6.851300e-02	4.537000e-02	1.144510e-02	4.440090e-02
126           	7.123910e-02	4.490240e-02	1.144860e-02	4.456660e-02
127           	7.324010e-02	4.587900e-02	1.132440e-02	4.476190e-02
128           	7.609880e-02	4.717200e-02	1.136610e-02	4.516920e-02
129           	7.654980e-02	4.948410e-02	1.148680e-02	4.722900e-02
130           	7.648260e-02	5.289450e-02	1.181510e-02	4.944100e-02
131           	7.787500e-02	5.749510e-02	1.253420e-02	5.210410e-02
132           	7.921320e-02	6.220490e-02	1.353430e-02	5.606330e-02
133           	8.183070e-02	6.658150e-02	1.489060e-02	6.219540e-02
134           	8.638680e-02	7.032310e-02	1.622210e-02	6.829970e-02
135           	9.113660e-02	7.134140e-02	1.705580e-02	7.065460e-02
136           	9.286370e-02	6.832640e-02	1.731410e-02	6.905790e-02
137           	9.252730e-02	6.412610e-02	1.681100e-02	6.476930e-02
138           	8.740070e-02	6.009770e-02	1.590830e-02	5.879230e-02
139           	8.053490e-02	5.807040e-02	1.473860e-02	5.503900e-02
140           	7.366150e-02	5.820280e-02	1.344070e-02	5.174540e-02
141           	7.444820e-02	5.740920e-02	1.241590e-02	4.872980e-02
142           	7.666750e-02	5.605630e-02	1.182000e-02	4.757220e-02
143           	7.838780e-02	5.378590e-02	1.140620e-02	4.703900e-02
144           	7.845100e-02	5.212970e-02	1.106230e-02	4.691460e-02
145           	7.864220e-02	5.074110e-02	1.087020e-02	4.652150e-02
146           	7.768640e-02	4.993210e-02	1.075150e-02	4.556800e-02
147           	7.590070e-02	4.947060e-02	1.092080e-02	4.409930e-02
148           	7.491820e-02	4.972380e-02	1.112200e-02	4.390880e-02
149           	7.325080e-02	4.928970e-02	1.126620e-02	4.387110e-02
150           	7.312770e-02	4.821370e-02	1.139280e-02	4.377570e-02
151           	7.474460e-02	4.678560e-02	1.158410e-02	4.367950e-02
152           	7.554600e-02	4.616580e-02	1.144790e-02	4.492040e-02
153           	7.598930e-02	4.540940e-02	1.125300e-02	4.622130e-02
154           	7.574440e-02	4.470950e-02	1.125090e-02	4.711980e-02
155           	7.607280e-02	4.439350e-02	1.129450e-02	4.804380e-02
156           	7.616820e-02	4.447480e-02	1.121390e-02	4.813260e-02
157           	7.528740e-02	4.496330e-02	1.113140e-02	4.776050e-02
158           	7.433460e-02	4.613560e-02	1.111310e-02	4.750230e-02
159           	7.577000e-02	4.724300e-02	1.103920e-02	4.728470e-02
160           	7.877320e-02	4.844910e-02	1.098660e-02	4.801350e-02
161           	8.062430e-02	4.916690e-02	1.099450e-02	4.929460e-02
162           	8.286080e-02	5.086420e-02	1.112840e-02	5.039760e-02
163           	8.508690e-02	5.292070e-02	1.150890e-02	5.225520e-02
164           	8.976680e-02	5.535740e-02	1.200210e-02	5.435620e-02
165           	9.448200e-02	5.708650e-02	1.258810e-02	5.587430e-02
166           	9.450240e-02	5.798020e-02	1.331930e-02	5.770220e-02
167           	9.190300e-02	5.766830e-02	1.372140e-02	5.907640e-02
168           	8.746520e-02	5.605910e-02	1.385100e-02	5.822790e-02
169           	8.510560e-02	5.589240e-02	1.377680e-02	5.675330e-02
170           	8.441470e-02	5.435020e-02	1.328850e-02	5.468750e-02
171           	7.999250e-02	5.113900e-02	1.278580e-02	5.198440e-02
172           	7.467010e-02	4.752720e-02	1.225010e-02	4.970450e-02
173           	7.089670e-02	4.479710e-02	1.158510e-02	4.804580e-02
174           	6.923890e-02	4.316650e-02	1.092290e-02	4.676360e-02
175           	6.866320e-02	4.267150e-02	1.052490e-02	4.516360e-02
176           	6.790850e-02	4.241830e-02	1.041320e-02	4.457700e-02
177           	7.000310e-02	4.126840e-02	1.033750e-02	4.456490e-02
178           	7.168210e-02	3.970810e-02	1.012620e-02	4.394380e-02
179           	7.233750e-02	3.841490e-02	9.729430e-03	4.247550e-02
180           	7.189560e-02	3.722870e-02	9.292700e-03	4.057490e-02
181           	7.207150e-02	3.597990e-02	8.980260e-03	3.915710e-02
182           	7.221440e-02	3.486050e-02	8.890060e-03	3.829240e-02
183           	7.279670e-02	3.455020e-02	8.940930e-03	3.835170e-02
184           	7.286940e-02	3.499190e-02	9.054660e-03	3.922640e-02
185           	7.268850e-02	3.612400e-02	9.316720e-03	4.106370e-02
186           	7.199090e-02	3.773560e-02	9.775780e-03	4.325450e-02
187           	7.206230e-02	4.045530e-02	1.045110e-02	4.643480e-02
188           	7.415540e-02	4.406170e-02	1.127640e-02	4.986370e-02
189           	7.643340e-02	4.829560e-02	1.223370e-02	5.348410e-02
190           	7.964720e-02	5.233730e-02	1.302590e-02	5.640360e-02
191           	8.439440e-02	5.840370e-02	1.402390e-02	6.011520e-02
192           	8.859640e-02	6.351060e-02	1.514900e-02	6.428950e-02
193           	9.308230e-02	6.734040e-02	1.615080e-02	6.695470e-02
194           	9.400220e-02	6.923840e-02	1.676200e-02	6.832850e-02
195           	9.712900e-02	7.060290e-02	1.746900e-02	6.920910e-02
196           	9.912720e-02	7.040660e-02	1.804320e-02	7.013430e-02
197           	9.678710e-02	6.816920e-02	1.805210e-02	6.915480e-02
198           	9.211230e-02	6.486900e-02	1.783870e-02	6.606320e-02
199           	8.807530e-02	6.310770e-02	1.700300e-02	6.329660e-02
200           	8.448910e-02	6.477550e-02	1.622570e-02	6.214240e-02
201           	8.211910e-02	6.649690e-02	1.554460e-02	6.099840e-02
202           	7.920990e-02	6.686720e-02	1.495330e-02	6.041940e-02
203           	7.735360e-02	6.528470e-02	1.427120e-02	5.989970e-02
204           	7.666380e-02	6.151820e-02	1.361500e-02	5.849170e-02
205           	7.555630e-02	5.663700e-02	1.294380e-02	5.550450e-02
206           	7.471650e-02	5.183830e-02	1.234790e-02	5.119300e-02
207           	7.282040e-02	4.864170e-02	1.170700e-02	4.735240e-02
208           	6.957480e-02	4.579760e-02	1.082110e-02	4.369800e-02
209           	6.699710e-02	4.317640e-02	1.001660e-02	4.150080e-02
210           	6.687420e-02	4.188600e-02	9.353730e-03	4.004290e-02
211           	6.598100e-02	4.028160e-02	8.898600e-03	3.832190e-02
212           	6.541730e-02	3.913690e-02	8.678330e-03	3.762770e-02
213           	6.456320e-02	3.870450e-02	8.678380e-03	3.707040e-02
214           	6.346430e-02	3.849900e-02	8.721860e-03	3.638340e-02
215           	6.273620e-02	3.843280e-02	8.819910e-03	3.624180e-02
216           	6.204760e-02	3.849810e-02	8.894590e-03	3.734610e-02
217           	6.171760e-02	3.843760e-02	8.781910e-03	3.830810e-02
218           	6.145200e-02	3.894590e-02	8.575650e-03	3.916450e-02
219           	6.053320e-02	3.819330e-02	8.240390e-03	3.838230e-02
220           	5.972780e-02	3.671740e-02	7.922030e-03	3.704290e-02
221           	5.908710e-02	3.503240e-02	7.658070e-03	3.561370e-02
222           	5.895870e-02	3.425330e-02	7.514720e-03	3.507650e-02
223           	5.926680e-02	3.399120e-02	7.559650e-03	3.515640e-02
224           	5.909000e-02	3.405250e-02	7.516250e-03	3.571910e-02
225           	5.837020e-02	3.439370e-02	7.589380e-03	3.605710e-02
226           	5.819740e-02	3.473510e-02	7.653690e-03	3.631950e-02
227           	5.773640e-02	3.520170e-02	7.802760e-03	3.623810e-02
228           	5.891590e-02	3.592620e-02	7.971730e-03	3.634820e-02
229           	6.103730e-02	3.710620e-02	8.267690e-03	3.646510e-02
230           	6.332010e-02	3.862790e-02	8.453950e-03	3.729460e-02
231           	6.552930e-02	3.934690e-02	8.653910e-03	3.770640e-02
232           	6.828970e-02	4.003170e-02	8.862760e-03	3.788600e-02
233           	7.043570e-02	4.042450e-02	9.203440e-03	3.863270e-02
234           	7.162520e-02	4.053590e-02	9.449650e-03	3.981820e-02
235           	7.410180e-02	4.091180e-02	9.560320e-03	4.021730e-02
236           	7.631490e-02	4.120770e-02	9.485250e-03	3.988900e-02
237           	7.617700e-02	4.044720e-02	9.320530e-03	3.943010e-02
238           	7.510930e-02	3.921620e-02	9.241430e-03	3.934050e-02
239           	7.444790e-02	3.809940e-02	9.324930e-03	3.940000e-02
240           	7.362770e-02	3.800000e-02	9.702750e-03	3.979880e-02
241           	7.529800e-02	3.949330e-02	1.006410e-02	4.117360e-02
242           	7.813460e-02	4.236100e-02	1.052140e-02	4.324610e-02
243           	8.074670e-02	4.589820e-02	1.112310e-02	4.561910e-02
244           	8.186500e-02	4.959190e-02	1.185120e-02	4.801200e-02
245           	8.250530e-02	5.382700e-02	1.253850e-02	5.129490e-02
246           	8.225230e-02	5.754770e-02	1.313410e-02	5.442440e-02
247           	8.433090e-02	6.003290e-02	1.359420e-02	5.680500e-02
248           	8.599670e-02	6.233910e-02	1.411220e-02	5.772010e-02
249           	8.701260e-02	6.204620e-02	1.462480e-02	5.778850e-02
250           	8.634460e-02	6.029900e-02	1.444770e-02	5.799770e-02
251           	8.410240e-02	5.677760e-02	1.340830e-02	5.533070e-02
252           	8.101720e-02	5.224510e-02	1.235740e-02	5.196470e-02
253           	7.776300e-02	4.827040e-02	1.139360e-02	4.867310e-02
254           	7.635120e-02	4.620630e-02	1.067840e-02	4.562580e-02
255           	7.531850e-02	4.587460e-02	1.042020e-02	4.409770e-02
256           	7.399820e-02	4.546330e-02	1.020630e-02	4.291760e-02
257           	7.247300e-02	4.399860e-02	9.918820e-03	4.242840e-02
258           	7.129940e-02	4.221960e-02	9.799560e-03	4.260860e-02
259           	7.100830e-02	4.034170e-02	9.820770e-03	4.183450e-02
260           	6.970080e-02	3.907180e-02	9.770840e-03	3.990680e-02
261           	6.605350e-02	3.842540e-02	9.409910e-03	3.877220e-02
262           	6.485190e-02	3.715350e-02	8.826450e-03	3.788790e-02
263           	6.438430e-02	3.539890e-02	8.497710e-03	3.729570e-02
264           	6.278480e-02	3.459520e-02	8.467090e-03	3.731880e-02
265           	6.374130e-02	3.474590e-02	8.560270e-03	3.672300e-02
266           	6.643500e-02	3.518990e-02	8.614660e-03	3.622420e-02
267           	6.978590e-02	3.574890e-02	8.448810e-03	3.555530e-02
268           	7.184290e-02	3.642440e-02	8.190150e-03	3.453330e-02
269           	7.381630e-02	3.712220e-02	8.046730e-03	3.420010e-02
270           	7.456340e-02	3.783440e-02	8.100280e-03	3.424170e-02
271           	7.377720e-02	3.813950e-02	8.222380e-03	3.464980e-02
272           	7.310640e-02	3.893370e-02	8.573070e-03	3.553600e-02
273           	7.225840e-02	3.918980e-02	8.774120e-03	3.609690e-02
274           	7.271000e-02	3.868820e-02	8.894420e-03	3.604380e-02
275           	7.328460e-02	3.838030e-02	8.889400e-03	3.685150e-02
276           	7.405590e-02	3.836480e-02	8.740180e-03	3.811330e-02
277           	7.583640e-02	3.955580e-02	8.681820e-03	4.004670e-02
278           	7.643470e-02	4.024850e-02	8.812990e-03	4.141020e-02
279           	7.600350e-02	3.994800e-02	8.928160e-03	4.184610e-02
280           	7.628230e-02	3.929660e-02	9.074710e-03	4.160750e-02
281           	7.539260e-02	3.858500e-02	9.210750e-03	4.175240e-02
282           	7.319140e-02	3.827320e-02	9.290580e-03	4.214160e-02
283           	7.125690e-02	3.818050e-02	9.300540e-03	4.189460e-02
284           	6.908800e-02	3.831150e-02	9.358710e-03	4.130400e-02
285           	6.793200e-02	3.901520e-02	9.627910e-03	4.174440e-02
286           	6.988570e-02	4.066740e-02	1.002420e-02	4.243510e-02
287           	7.492220e-02	4.324770e-02	1.058040e-02	4.322760e-02
288           	7.893780e-02	4.596600e-02	1.099150e-02	4.454140e-02
289           	8.036880e-02	4.850690e-02	1.127630e-02	4.612940e-02
290           	8.161890e-02	5.129260e-02	1.158010e-02	4.853880e-02
291           	8.403060e-02	5.415940e-02	1.219350e-02	5.233250e-02
292           	8.703510e-02	5.817860e-02	1.332780e-02	5.729700e-02
293           	9.126590e-02	6.259320e-02	1.464020e-02	6.312660e-02
294           	9.918250e-02	6.588140e-02	1.557460e-02	6.727360e-02
295           	1.032180e-01	6.576700e-02	1.609550e-02	6.799930e-02
296           	1.008540e-01	6.460470e-02	1.611440e-02	6.710500e-02
297           	9.640450e-02	6.196780e-02	1.565170e-02	6.407200e-02
298           	8.852290e-02	5.976070e-02	1.491560e-02	6.068990e-02
299           	8.422430e-02	5.784690e-02	1.384690e-02	5.759720e-02
300           	8.193370e-02	5.625090e-02	1.270620e-02	5.463380e-02
301           	8.233060e-02	5.408070e-02	1.165650e-02	5.111160e-02
302           	8.007040e-02	5.096610e-02	1.098220e-02	4.858660e-02
303           	7.802870e-02	4.857330e-02	1.056390e-02	4.605500e-02
304           	7.722290e-02	4.483990e-02	1.021590e-02	4.357780e-02
305           	7.840070e-02	4.211150e-02	9.849890e-03	4.114680e-02
306           	7.885400e-02	4.175760e-02	9.273570e-03	3.936530e-02
307           	7.725080e-02	4.133740e-02	8.744840e-03	3.814210e-02
308           	7.573920e-02	4.062640e-02	8.575000e-03	3.768890e-02
309           	7.288340e-02	3.832820e-02	8.462360e-03	3.678320e-02
310           	7.191990e-02	3.580560e-02	8.157050e-03	3.507360e-02
311           	7.101720e-02	3.444160e-02	7.801080e-03	3.332990e-02
312           	6.963620e-02	3.452310e-02	7.607210e-03	3.277860e-02
313           	7.019380e-02	3.572650e-02	7.748830e-03	3.350560e-02
314           	7.074380e-02	3.721170e-02	8.360960e-03	3.549160e-02
315           	7.195730e-02	3.862310e-02	9.022590e-03	3.742590e-02
316           	7.398980e-02	3.993030e-02	9.712860e-03	3.945230e-02
317           	7.812410e-02	4.112460e-02	1.034620e-02	4.130060e-02
318           	8.148660e-02	4.294850e-02	1.105750e-02	4.321290e-02
319           	8.267290e-02	4.625010e-02	1.171490e-02	4.559910e-02
320           	8.228080e-02	5.013980e-02	1.228320e-02	4.853290e-02
321           	8.152750e-02	5.389340e-02	1.308170e-02	5.216700e-02
322           	7.969550e-02	5.775170e-02	1.392590e-02	5.561150e-02
323           	8.096330e-02	6.115970e-02	1.476660e-02	5.852100e-02
324           	8.256360e-02	6.282190e-02	1.535340e-02	6.126920e-02
325           	8.324620e-02	6.364930e-02	1.584160e-02	6.347400e-02
326           	8.408290e-02	6.320020e-02	1.607740e-02	6.474110e-02
327           	8.261870e-02	6.260190e-02	1.588260e-02	6.444080e-02
328           	7.951670e-02	6.298000e-02	1.539800e-02	6.311620e-02
329           	7.798870e-02	6.271690e-02	1.491350e-02	6.082820e-02
330           	7.921210e-02	6.148160e-02	1.429010e-02	5.809310e-02
331           	8.147410e-02	5.854460e-02	1.355680e-02	5.495790e-02
332           	8.236280e-02	5.391480e-02	1.276110e-02	5.142430e-02
333           	7.847290e-02	5.024900e-02	1.164830e-02	4.814120e-02
334           	7.414060e-02	4.721590e-02	1.092450e-02	4.537560e-02
335           	7.051360e-02	4.543290e-02	1.045920e-02	4.418040e-02
336           	6.970390e-02	4.471370e-02	1.015800e-02	4.386760e-02
337           	7.117880e-02	4.407020e-02	9.824640e-03	4.385870e-02
338           	7.263770e-02	4.301250e-02	9.490620e-03	4.375350e-02
339           	7.321750e-02	4.186070e-02	9.118290e-03	4.307800e-02
340           	7.404060e-02	4.071100e-02	8.847450e-03	4.222160e-02
341           	7.560490e-02	4.032830e-02	8.634380e-03	4.135840e-02
342           	7.590950e-02	4.088730e-02	8.735000e-03	4.050820e-02
343           	7.649450e-02	4.235100e-02	9.143880e-03	4.040250e-02
344           	7.790640e-02	4.391340e-02	9.593750e-03	4.046810e-02
345           	7.862150e-02	4.504270e-02	1.006440e-02	4.075810e-02
346           	7.971560e-02	4.532920e-02	1.051090e-02	4.116030e-02
347           	8.039720e-02	4.608220e-02	1.087940e-02	4.230000e-02
348           	8.380790e-02	4.747510e-02	1.118510e-02	4.310150e-02
349           	8.677170e-02	4.871920e-02	1.159410e-02	4.396130e-02
350           	8.723020e-02	4.962610e-02	1.190190e-02	4.450400e-02
351           	8.523140e-02	4.934870e-02	1.231530e-02	4.525280e-02
352           	8.301280e-02	4.988850e-02	1.274440e-02	4.702800e-02
353           	8.155200e-02	5.282940e-02	1.343530e-02	5.003850e-02
354           	7.986850e-02	5.760340e-02	1.431530e-02	5.405760e-02
355           	8.062100e-02	6.321190e-02	1.528480e-02	5.926760e-02
356           	8.210950e-02	6.872350e-02	1.665100e-02	6.529080e-02
357           	8.311620e-02	7.285840e-02	1.797080e-02	7.148950e-02
358           	8.549400e-02	7.580050e-02	1.877610e-02	7.622730e-02
359           	9.156640e-02	7.706890e-02	1.953410e-02	7.933350e-02
360           	9.661380e-02	7.734840e-02	2.019470e-02	8.100310e-02
361           	9.825370e-02	7.777390e-02	2.090310e-02	8.236170e-02
362           	9.415960e-02	7.681510e-02	2.156050e-02	7.924330e-02
363           	8.900270e-02	7.728740e-02	2.154380e-02	7.554940e-02
364           	8.345510e-02	7.701210e-02	2.089150e-02	7.363850e-02
365           	7.824860e-02	7.452170e-02	1.960680e-02	7.327930e-02
366           	7.491100e-02	6.975390e-02	1.795020e-02	7.187360e-02
367           	7.436430e-02	6.652530e-02	1.630150e-02	6.842470e-02
368           	7.571080e-02	6.457760e-02	1.507920e-02	6.483530e-02
369           	8.022090e-02	6.318810e-02	1.477660e-02	6.312550e-02
370           	8.485430e-02	6.192390e-02	1.499920e-02	6.244180e-02
371           	8.612980e-02	6.016760e-02	1.531200e-02	6.164810e-02
372           	8.623710e-02	5.890470e-02	1.545800e-02	6.025000e-02
373           	8.879750e-02	5.847160e-02	1.517470e-02	5.896750e-02
374           	9.043940e-02	5.856990e-02	1.484630e-02	5.884850e-02
375           	8.940240e-02	5.726340e-02	1.419180e-02	5.897950e-02
376           	8.786050e-02	5.559910e-02	1.338820e-02	5.872640e-02
377           	8.490510e-02	5.367800e-02	1.269920e-02	5.737150e-02
378           	8.309510e-02	5.251360e-02	1.217850e-02	5.629770e-02
379           	8.215740e-02	5.233900e-02	1.199250e-02	5.568470e-02
380           	8.077860e-02	5.206000e-02	1.177910e-02	5.469320e-02
381           	7.782250e-02	5.127810e-02	1.150780e-02	5.349990e-02
382           	7.496390e-02	4.925350e-02	1.111890e-02	5.085550e-02
383           	7.296100e-02	4.695460e-02	1.063920e-02	4.774720e-02
384           	7.213950e-02	4.505330e-02	1.038420e-02	4.590480e-02
385           	7.024640e-02	4.419220e-02	1.039900e-02	4.483990e-02
386           	6.869180e-02	4.367900e-02	1.042600e-02	4.467970e-02
387           	6.723630e-02	4.239470e-02	1.030330e-02	4.419360e-02
388           	6.598360e-02	4.112990e-02	9.848440e-03	4.361230e-02
389           	6.432700e-02	4.006090e-02	9.387150e-03	4.318260e-02
390           	6.274090e-02	3.909510e-02	9.103350e-03	4.241860e-02
391           	6.404000e-02	3.905200e-02	8.934670e-03	4.121820e-02
392           	6.546290e-02	3.894650e-02	8.698990e-03	3.932220e-02
393           	6.551840e-02	3.883140e-02	8.606690e-03	3.799340e-02
394           	6.743470e-02	3.865590e-02	8.788550e-03	3.738940e-02
395           	7.102240e-02	3.894670e-02	9.133460e-03	3.870740e-02
396           	7.374220e-02	3.956480e-02	9.454060e-03	4.033210e-02
397           	7.476940e-02	4.008330e-02	9.784040e-03	4.167010e-02
398           	7.592210e-02	4.139760e-02	1.035380e-02	4.340550e-02
399           	7.647620e-02	4.255860e-02	1.101560e-02	4.511810e-02
400           	7.886980e-02	4.376870e-02	1.196280e-02	4.756330e-02
401           	8.178120e-02	4.573560e-02	1.301270e-02	5.073610e-02
402           	8.320330e-02	4.849990e-02	1.417690e-02	5.403530e-02
403           	8.697700e-02	5.354520e-02	1.584260e-02	5.835840e-02
404           	9.307340e-02	6.007210e-02	1.741590e-02	6.245700e-02
405           	9.656600e-02	6.960740e-02	1.910180e-02	6.847330e-02
406           	9.742240e-02	7.900370e-02	2.073430e-02	7.421590e-02
407           	9.981460e-02	8.854340e-02	2.210180e-02	8.005850e-02
408           	1.060450e-01	9.579680e-02	2.319630e-02	8.354070e-02
409           	1.111070e-01	9.678150e-02	2.318890e-02	8.385980e-02
410           	1.115120e-01	8.874930e-02	2.260310e-02	7.898940e-02
411           	1.073340e-01	7.653120e-02	2.112160e-02	7.177260e-02
412           	9.672150e-02	6.733170e-02	1.950440e-02	6.541710e-02
413           	8.421960e-02	6.476070e-02	1.794570e-02	6.199020e-02
414           	7.545470e-02	6.570660e-02	1.658810e-02	6.034920e-02
415           	7.188960e-02	6.565120e-02	1.512350e-02	5.876910e-02
416           	7.005660e-02	6.389430e-02	1.383250e-02	5.607150e-02
417           	7.047550e-02	6.157510e-02	1.276940e-02	5.371840e-02
418           	7.219520e-02	5.951940e-02	1.205050e-02	5.214340e-02
419           	7.431860e-02	5.745240e-02	1.183200e-02	5.111610e-02
420           	7.588970e-02	5.565390e-02	1.187150e-02	5.175900e-02
421           	7.759370e-02	5.431250e-02	1.222300e-02	5.181450e-02
422           	7.693570e-02	5.324720e-02	1.210580e-02	5.030400e-02
423           	7.502350e-02	5.198710e-02	1.178870e-02	4.816920e-02
424           	7.322000e-02	5.169670e-02	1.175410e-02	4.665060e-02
425           	7.492030e-02	5.193920e-02	1.205390e-02	4.622130e-02
426           	7.507480e-02	5.232550e-02	1.239390e-02	4.587940e-02
427           	7.505850e-02	5.268880e-02	1.272130e-02	4.731560e-02
428           	7.572540e-02	5.269610e-02	1.292190e-02	5.004240e-02
429           	7.677660e-02	5.299070e-02	1.300170e-02	5.238440e-02
430           	7.781290e-02	5.277880e-02	1.266240e-02	5.345080e-02
431           	7.842560e-02	5.261510e-02	1.254410e-02	5.434040e-02
432           	7.942090e-02	5.206970e-02	1.259540e-02	5.488820e-02
433           	8.063430e-02	5.209060e-02	1.286090e-02	5.586550e-02
434           	8.263000e-02	5.271470e-02	1.346020e-02	5.747310e-02
435           	8.797850e-02	5.532910e-02	1.428590e-02	5.956670e-02
436           	9.205300e-02	5.969330e-02	1.533000e-02	6.290220e-02
437           	9.681070e-02	6.563980e-02	1.625640e-02	6.617220e-02
438           	9.961650e-02	7.129610e-02	1.700580e-02	6.876360e-02
439           	1.003280e-01	7.608780e-02	1.817470e-02	7.164400e-02
440           	1.027130e-01	7.847130e-02	1.959820e-02	7.589690e-02
441           	1.031820e-01	8.017350e-02	2.125930e-02	8.048890e-02
442           	1.001690e-01	8.231940e-02	2.288450e-02	8.563840e-02
443           	9.221790e-02	8.271940e-02	2.330940e-02	8.936070e-02
444           	8.533050e-02	7.966020e-02	2.250030e-02	8.910740e-02
445           	8.312080e-02	7.457270e-02	2.125190e-02	8.484160e-02
446           	8.302060e-02	7.115070e-02	1.976980e-02	8.022680e-02