# Residuals   
# Time        	p             	Ux            	Uy            	Uz            
1             	1.000000e+00	4.325670e-01	1.000000e+00	3.871190e-01
2             	3.943500e-01	5.997300e-01	2.569720e-01	5.956980e-01
3             	4.529000e-02	4.872440e-01	1.560890e-01	4.598610e-01
4             	5.529840e-02	3.318250e-01	1.020630e-01	2.987990e-01
5             	8.815190e-02	2.575430e-01	7.834330e-02	2.383920e-01
6             	1.229130e-01	2.166840e-01	6.317860e-02	2.080520e-01
7             	1.345250e-01	1.830700e-01	5.426740e-02	1.757900e-01
8             	1.213260e-01	1.527660e-01	4.836140e-02	1.466190e-01
9             	1.074010e-01	1.277970e-01	4.251700e-02	1.170590e-01
10            	8.105320e-02	1.184230e-01	3.614190e-02	1.060940e-01
11            	6.435950e-02	1.092560e-01	3.044010e-02	1.011960e-01
12            	5.811600e-02	9.653990e-02	2.582530e-02	9.145120e-02
13            	5.644590e-02	8.228670e-02	2.260270e-02	7.923870e-02
14            	5.703610e-02	7.179060e-02	2.040750e-02	6.968960e-02
15            	6.204610e-02	6.510420e-02	1.886560e-02	6.338760e-02
16            	6.586870e-02	6.081800e-02	1.723010e-02	5.780780e-02
17            	6.889810e-02	5.732570e-02	1.569400e-02	5.340720e-02
18            	7.023240e-02	5.405170e-02	1.410160e-02	5.054340e-02
19            	7.138350e-02	5.123190e-02	1.248440e-02	4.832240e-02
20            	7.098720e-02	4.875360e-02	1.108350e-02	4.622470e-02
21            	6.998110e-02	4.650220e-02	1.026480e-02	4.430830e-02
22            	6.934740e-02	4.453640e-02	9.673900e-03	4.284970e-02
23            	7.110490e-02	4.325740e-02	9.420950e-03	4.235640e-02
24            	7.464770e-02	4.246370e-02	9.242050e-03	4.196110e-02
25            	7.687510e-02	4.181480e-02	9.043700e-03	4.131800e-02
26            	7.818440e-02	4.035660e-02	8.612430e-03	3.983910e-02
27            	7.836980e-02	3.891010e-02	8.335660e-03	3.832420e-02
28            	7.831390e-02	3.817000e-02	8.321680e-03	3.786430e-02
29            	7.641620e-02	3.729940e-02	8.234990e-03	3.730730e-02
30            	7.429340e-02	3.666560e-02	8.117210e-03	3.661500e-02
31            	7.229720e-02	3.587900e-02	7.929660e-03	3.604530e-02
32            	7.035130e-02	3.453850e-02	7.595120e-03	3.500470e-02
33            	6.859510e-02	3.296570e-02	7.250390e-03	3.359190e-02
34            	6.743650e-02	3.171780e-02	6.943660e-03	3.209280e-02
35            	6.626140e-02	3.137500e-02	6.735730e-03	3.136660e-02
36            	6.305150e-02	3.082960e-02	6.580870e-03	3.052510e-02
37            	5.949820e-02	3.050130e-02	6.400950e-03	2.955550e-02
38            	5.795350e-02	3.010560e-02	6.215120e-03	2.859410e-02
39            	5.831200e-02	3.032610e-02	6.160620e-03	2.883530e-02
40            	5.892110e-02	3.101570e-02	6.449520e-03	2.995400e-02
41            	5.910830e-02	3.253480e-02	6.959200e-03	3.147780e-02
42            	5.933670e-02	3.497210e-02	7.634800e-03	3.338040e-02
43            	6.088870e-02	3.750190e-02	8.223280e-03	3.541330e-02
44            	6.433630e-02	4.016840e-02	8.746890e-03	3.767440e-02
45            	6.825720e-02	4.222160e-02	9.345970e-03	3.990070e-02
46            	6.849410e-02	4.393250e-02	9.820180e-03	4.204290e-02
47            	6.999700e-02	4.383930e-02	9.901700e-03	4.225190e-02
48            	7.292310e-02	4.329790e-02	9.628320e-03	4.153320e-02
49            	7.487530e-02	4.244810e-02	9.383980e-03	4.085600e-02
50            	7.513490e-02	4.126370e-02	9.373970e-03	4.010440e-02
51            	7.438150e-02	4.145320e-02	9.633070e-03	4.013140e-02
52            	7.438080e-02	4.191430e-02	9.834650e-03	4.054630e-02
53            	7.453720e-02	4.222270e-02	9.848860e-03	4.127060e-02
54            	7.495020e-02	4.320040e-02	1.011200e-02	4.302190e-02
55            	7.496010e-02	4.453100e-02	1.059270e-02	4.628880e-02
56            	7.582360e-02	4.705300e-02	1.120190e-02	4.958100e-02
57            	7.761440e-02	5.180300e-02	1.218650e-02	5.374900e-02
58            	8.101510e-02	5.636700e-02	1.310510e-02	5.690340e-02
59            	8.306850e-02	6.069730e-02	1.432560e-02	6.087430e-02
60            	8.426440e-02	6.494890e-02	1.533870e-02	6.470960e-02
61            	8.850500e-02	6.879510e-02	1.625120e-02	6.824100e-02
62            	8.982340e-02	7.043370e-02	1.679290e-02	6.998960e-02
63            	9.079210e-02	6.913470e-02	1.683520e-02	6.780900e-02
64            	8.888840e-02	6.413640e-02	1.637180e-02	6.354370e-02
65            	8.421900e-02	5.874460e-02	1.506630e-02	5.894320e-02
66            	7.821400e-02	5.424440e-02	1.360150e-02	5.541990e-02
67            	7.629210e-02	5.172000e-02	1.257950e-02	5.277960e-02
68            	7.524420e-02	5.045460e-02	1.186520e-02	4.988080e-02
69            	7.488390e-02	4.909910e-02	1.138190e-02	4.736830e-02
70            	7.572520e-02	4.771890e-02	1.081570e-02	4.557300e-02
71            	7.499300e-02	4.640960e-02	1.029050e-02	4.393630e-02
72            	7.378750e-02	4.513740e-02	1.018470e-02	4.296310e-02
73            	7.598770e-02	4.451270e-02	1.049310e-02	4.290770e-02
74            	7.728400e-02	4.501260e-02	1.104190e-02	4.345870e-02
75            	7.762740e-02	4.627690e-02	1.137930e-02	4.416900e-02
76            	7.654870e-02	4.691710e-02	1.137440e-02	4.442120e-02
77            	7.707900e-02	4.714020e-02	1.134380e-02	4.505570e-02
78            	7.584510e-02	4.727740e-02	1.135410e-02	4.601580e-02
79            	7.507680e-02	4.693960e-02	1.137900e-02	4.658910e-02
80            	7.599970e-02	4.613740e-02	1.136400e-02	4.664390e-02
81            	7.791100e-02	4.758690e-02	1.170440e-02	4.714320e-02
82            	8.073340e-02	5.096930e-02	1.236040e-02	4.849680e-02
83            	8.121340e-02	5.457160e-02	1.309700e-02	5.071080e-02
84            	8.366260e-02	5.808180e-02	1.372140e-02	5.379100e-02
85            	8.452920e-02	6.287970e-02	1.453850e-02	5.752560e-02
86            	8.583580e-02	6.633950e-02	1.524380e-02	6.109770e-02
87            	8.789050e-02	6.650850e-02	1.577960e-02	6.326770e-02
88            	8.937960e-02	6.555460e-02	1.613420e-02	6.488240e-02
89            	8.883620e-02	6.219240e-02	1.606550e-02	6.448800e-02
90            	8.570710e-02	5.773050e-02	1.546140e-02	6.146700e-02
91            	8.201730e-02	5.534370e-02	1.493820e-02	5.894390e-02
92            	7.913030e-02	5.533150e-02	1.451420e-02	5.675220e-02
93            	7.733670e-02	5.535740e-02	1.376090e-02	5.478360e-02
94            	7.648450e-02	5.503740e-02	1.308540e-02	5.309150e-02
95            	7.763840e-02	5.442760e-02	1.255810e-02	5.209560e-02
96            	7.811780e-02	5.359820e-02	1.225540e-02	5.074460e-02
97            	7.918170e-02	5.287680e-02	1.201900e-02	4.859360e-02
98            	8.011790e-02	5.148320e-02	1.166100e-02	4.621310e-02
99            	7.935680e-02	5.019830e-02	1.157710e-02	4.478380e-02
100           	7.874210e-02	4.967890e-02	1.164330e-02	4.457180e-02
101           	7.880100e-02	5.095790e-02	1.181840e-02	4.647900e-02
102           	7.726480e-02	5.286290e-02	1.196350e-02	4.854050e-02
103           	7.677990e-02	5.352870e-02	1.197880e-02	5.005640e-02
104           	7.617760e-02	5.375570e-02	1.190920e-02	5.072810e-02
105           	7.726910e-02	5.572060e-02	1.222290e-02	5.136630e-02
106           	7.692120e-02	5.794520e-02	1.248470e-02	5.185850e-02
107           	7.615030e-02	5.962150e-02	1.279680e-02	5.255370e-02
108           	8.085550e-02	5.927780e-02	1.316300e-02	5.257150e-02
109           	8.243350e-02	5.698100e-02	1.306560e-02	5.155610e-02
110           	8.304990e-02	5.363320e-02	1.293420e-02	5.006410e-02
111           	8.358130e-02	5.323180e-02	1.288740e-02	5.073000e-02
112           	8.460860e-02	5.671410e-02	1.313400e-02	5.336790e-02
113           	8.500760e-02	6.107870e-02	1.339770e-02	5.626180e-02
114           	8.721790e-02	6.471490e-02	1.360140e-02	5.847280e-02
115           	8.756620e-02	6.783680e-02	1.401050e-02	5.921490e-02
116           	8.545330e-02	7.033490e-02	1.473890e-02	6.121180e-02
117           	8.368150e-02	7.250390e-02	1.561500e-02	6.351360e-02
118           	8.398860e-02	7.433500e-02	1.691910e-02	6.671650e-02
119           	8.933200e-02	7.409380e-02	1.828330e-02	6.882530e-02
120           	9.573460e-02	7.277260e-02	1.888160e-02	7.077420e-02
121           	1.000650e-01	7.004070e-02	1.834580e-02	6.931930e-02
122           	9.721940e-02	6.291280e-02	1.666190e-02	6.375430e-02
123           	8.913420e-02	5.814690e-02	1.513700e-02	5.837090e-02
124           	8.338030e-02	5.766870e-02	1.421080e-02	5.548710e-02
125           	8.201820e-02	5.963270e-02	1.413720e-02	5.445960e-02
126           	8.124210e-02	6.167100e-02	1.406520e-02	5.433430e-02
127           	8.087440e-02	6.350380e-02	1.423210e-02	5.532700e-02
128           	8.074550e-02	6.616190e-02	1.425860e-02	5.679630e-02
129           	8.185680e-02	6.834950e-02	1.426370e-02	5.744220e-02
130           	8.368660e-02	6.765850e-02	1.420370e-02	5.647890e-02
131           	8.464850e-02	6.534860e-02	1.387300e-02	5.557080e-02
132           	8.343300e-02	6.199480e-02	1.364190e-02	5.526000e-02
133           	8.152480e-02	6.038650e-02	1.370780e-02	5.667120e-02
134           	8.045460e-02	6.049570e-02	1.392300e-02	5.784810e-02
135           	7.942960e-02	6.198710e-02	1.419250e-02	5.853850e-02
136           	8.079640e-02	6.310680e-02	1.436240e-02	5.796430e-02
137           	8.058190e-02	6.307770e-02	1.468320e-02	5.779870e-02
138           	7.730470e-02	6.314190e-02	1.475290e-02	5.789980e-02
139           	7.639240e-02	6.233410e-02	1.466090e-02	5.775270e-02
140           	7.759420e-02	6.035840e-02	1.446220e-02	5.781450e-02
141           	7.908700e-02	5.818480e-02	1.405120e-02	5.637050e-02
142           	7.955780e-02	5.554070e-02	1.358720e-02	5.465710e-02
143           	7.801450e-02	5.308530e-02	1.315420e-02	5.301140e-02
144           	7.630400e-02	5.173120e-02	1.276660e-02	5.146890e-02
145           	7.817800e-02	5.027370e-02	1.247300e-02	4.954020e-02
146           	8.111240e-02	4.933300e-02	1.212360e-02	4.813170e-02
147           	8.375790e-02	4.976410e-02	1.182710e-02	4.829750e-02
148           	8.659650e-02	5.175810e-02	1.176440e-02	4.901570e-02
149           	8.783100e-02	5.402670e-02	1.186430e-02	4.902780e-02
150           	8.874150e-02	5.578040e-02	1.197850e-02	4.869300e-02
151           	8.659230e-02	5.623250e-02	1.193440e-02	4.890570e-02
152           	8.631100e-02	5.611550e-02	1.190720e-02	4.939580e-02
153           	8.596800e-02	5.521180e-02	1.180850e-02	4.915950e-02
154           	8.520290e-02	5.348700e-02	1.154620e-02	4.859750e-02
155           	8.282290e-02	5.274020e-02	1.136690e-02	4.814850e-02
156           	8.100550e-02	5.439700e-02	1.139800e-02	4.834340e-02
157           	8.153840e-02	5.598560e-02	1.174330e-02	4.901450e-02
158           	8.224150e-02	5.919080e-02	1.270320e-02	5.198040e-02
159           	8.251680e-02	6.277330e-02	1.369460e-02	5.514360e-02
160           	8.478490e-02	6.566480e-02	1.467860e-02	5.830350e-02
161           	8.638320e-02	6.603110e-02	1.493250e-02	6.022040e-02
162           	8.679110e-02	6.261950e-02	1.455760e-02	5.731090e-02
163           	8.627890e-02	5.882230e-02	1.390800e-02	5.429910e-02
164           	8.507680e-02	5.563240e-02	1.350680e-02	5.206570e-02
165           	8.256110e-02	5.357340e-02	1.312150e-02	5.049470e-02
166           	7.970090e-02	5.254560e-02	1.295130e-02	4.956610e-02
167           	8.012240e-02	5.410410e-02	1.363590e-02	5.150900e-02
168           	8.376430e-02	5.611820e-02	1.449320e-02	5.394050e-02
169           	8.402250e-02	5.919500e-02	1.502810e-02	5.757050e-02
170           	8.472020e-02	6.169330e-02	1.562080e-02	6.117650e-02
171           	8.598740e-02	6.478140e-02	1.604110e-02	6.476170e-02
172           	8.762290e-02	6.761740e-02	1.653660e-02	6.825750e-02
173           	9.093710e-02	7.095390e-02	1.738370e-02	7.297260e-02
174           	9.318280e-02	7.400460e-02	1.834790e-02	7.729210e-02
175           	9.435690e-02	7.651880e-02	1.943020e-02	8.026560e-02
176           	9.895620e-02	7.803500e-02	2.010710e-02	8.152740e-02
177           	1.000160e-01	7.718830e-02	2.100900e-02	7.890430e-02
178           	9.465030e-02	7.867480e-02	2.174820e-02	7.557220e-02
179           	8.567820e-02	7.839370e-02	2.136060e-02	7.171410e-02
180           	7.982030e-02	7.475920e-02	1.996950e-02	6.721840e-02
181           	7.838630e-02	6.844140e-02	1.808750e-02	6.289990e-02
182           	7.972660e-02	6.345330e-02	1.637460e-02	6.090890e-02
183           	7.898730e-02	5.997970e-02	1.493220e-02	5.762960e-02
184           	7.780460e-02	5.789810e-02	1.414700e-02	5.505900e-02
185           	7.676880e-02	5.668490e-02	1.384920e-02	5.421290e-02
186           	7.745860e-02	5.631060e-02	1.401690e-02	5.508090e-02
187           	7.854630e-02	5.828940e-02	1.428390e-02	5.806030e-02
188           	8.149170e-02	6.180710e-02	1.474980e-02	6.120510e-02
189           	8.367050e-02	6.435680e-02	1.518900e-02	6.454380e-02
190           	8.660370e-02	6.669670e-02	1.572610e-02	6.744590e-02
191           	9.040700e-02	6.825610e-02	1.589220e-02	6.840870e-02
192           	9.360110e-02	6.738120e-02	1.559780e-02	6.628180e-02
193           	9.600760e-02	6.438290e-02	1.504110e-02	6.255120e-02
194           	9.474670e-02	6.014610e-02	1.443850e-02	5.934150e-02
195           	9.247620e-02	5.607170e-02	1.386990e-02	5.630270e-02
196           	9.033830e-02	5.265530e-02	1.327140e-02	5.338980e-02
197           	8.553730e-02	5.085600e-02	1.262150e-02	5.213000e-02
198           	8.179290e-02	4.900100e-02	1.222850e-02	5.079390e-02
199           	7.860870e-02	4.812450e-02	1.243110e-02	5.055750e-02
200           	7.627920e-02	4.847280e-02	1.258690e-02	5.082620e-02
201           	7.665430e-02	4.935040e-02	1.264130e-02	5.105130e-02
202           	7.762700e-02	5.128980e-02	1.281120e-02	5.164320e-02
203           	7.766630e-02	5.377050e-02	1.302620e-02	5.177500e-02
204           	7.609270e-02	5.572010e-02	1.332410e-02	5.206650e-02
205           	7.512330e-02	5.673020e-02	1.352000e-02	5.214900e-02
206           	7.548140e-02	5.814260e-02	1.373760e-02	5.283730e-02
207           	7.779550e-02	5.930380e-02	1.401000e-02	5.386930e-02
208           	7.970460e-02	5.979310e-02	1.432680e-02	5.560090e-02
209           	8.185540e-02	6.088210e-02	1.498590e-02	5.823840e-02
210           	8.434540e-02	6.256920e-02	1.543810e-02	6.085710e-02
211           	8.623630e-02	6.505830e-02	1.587740e-02	6.339370e-02
212           	8.787330e-02	6.711120e-02	1.660770e-02	6.602580e-02
213           	8.724330e-02	6.956490e-02	1.724830e-02	6.739740e-02
214           	8.613310e-02	7.091590e-02	1.725130e-02	6.847270e-02
215           	8.648520e-02	7.112890e-02	1.713000e-02	6.809320e-02
216           	8.512060e-02	7.018510e-02	1.706420e-02	6.805240e-02
217           	8.298160e-02	6.976540e-02	1.733690e-02	6.834170e-02
218           	8.262030e-02	6.990690e-02	1.757620e-02	6.966690e-02
219           	8.534780e-02	7.041110e-02	1.826420e-02	7.163800e-02
220           	8.587050e-02	7.053590e-02	1.860150e-02	7.235790e-02
221           	8.616790e-02	7.116900e-02	1.858920e-02	7.198570e-02
222           	8.676320e-02	7.176840e-02	1.854810e-02	7.048830e-02
223           	8.914800e-02	6.998050e-02	1.818070e-02	6.758430e-02
224           	8.904820e-02	6.654110e-02	1.699790e-02	6.394110e-02
225           	8.677400e-02	6.234850e-02	1.566280e-02	6.057600e-02
226           	8.312600e-02	5.669400e-02	1.401790e-02	5.583210e-02
227           	8.173900e-02	5.210930e-02	1.263470e-02	5.226040e-02
228           	7.909820e-02	4.811730e-02	1.164750e-02	4.892820e-02
229           	7.584940e-02	4.543660e-02	1.087760e-02	4.602480e-02
230           	7.299870e-02	4.323730e-02	1.032760e-02	4.320620e-02
231           	7.025000e-02	4.152660e-02	9.899070e-03	4.111500e-02
232           	6.824520e-02	4.085780e-02	9.784610e-03	4.068650e-02
233           	6.803760e-02	4.079370e-02	9.914440e-03	4.135510e-02
234           	6.948100e-02	4.148830e-02	1.040900e-02	4.308690e-02
235           	7.045350e-02	4.292370e-02	1.107450e-02	4.521520e-02
236           	7.279660e-02	4.510200e-02	1.179340e-02	4.742390e-02
237           	7.702450e-02	4.880110e-02	1.282820e-02	5.043080e-02
238           	8.218640e-02	5.412260e-02	1.405350e-02	5.406630e-02
239           	8.748050e-02	6.135570e-02	1.548980e-02	5.934160e-02
240           	9.115770e-02	6.900040e-02	1.732430e-02	6.656660e-02
241           	9.197910e-02	7.729360e-02	1.938520e-02	7.457800e-02
242           	9.373480e-02	8.382620e-02	2.111420e-02	8.116970e-02
243           	9.391360e-02	8.863490e-02	2.280560e-02	8.711750e-02
244           	9.382560e-02	9.202620e-02	2.450090e-02	9.397550e-02
245           	9.399420e-02	9.175760e-02	2.488070e-02	9.734910e-02
246           	9.341280e-02	9.004780e-02	2.463410e-02	9.511470e-02
247           	9.339800e-02	8.815280e-02	2.396890e-02	9.007950e-02
248           	8.981780e-02	8.946710e-02	2.349180e-02	8.624770e-02
249           	8.858740e-02	9.127830e-02	2.275430e-02	8.278580e-02
250           	8.844250e-02	9.050520e-02	2.172630e-02	8.056720e-02
251           	8.798990e-02	8.604760e-02	2.037380e-02	7.814040e-02
252           	8.493850e-02	8.014060e-02	1.940190e-02	7.598410e-02
253           	7.943360e-02	7.441830e-02	1.866850e-02	7.451330e-02
254           	7.717870e-02	7.025740e-02	1.793470e-02	7.224250e-02
255           	7.794250e-02	6.749370e-02	1.715440e-02	6.895850e-02
256           	7.759420e-02	6.565210e-02	1.617520e-02	6.639500e-02
257           	7.715070e-02	6.449610e-02	1.524120e-02	6.485030e-02
258           	7.718520e-02	6.299140e-02	1.466320e-02	6.350810e-02
259           	7.749690e-02	6.240930e-02	1.444420e-02	6.145560e-02
260           	7.934600e-02	6.285500e-02	1.487230e-02	6.083860e-02
261           	8.072960e-02	6.328380e-02	1.523850e-02	6.102650e-02
262           	8.289400e-02	6.447140e-02	1.580650e-02	6.193470e-02
263           	8.625570e-02	6.655200e-02	1.633750e-02	6.484510e-02
264           	8.599940e-02	6.646740e-02	1.630930e-02	6.598600e-02
265           	8.450720e-02	6.446280e-02	1.558800e-02	6.559100e-02
266           	8.352000e-02	6.232410e-02	1.482440e-02	6.371150e-02
267           	8.272450e-02	6.024050e-02	1.412800e-02	6.165770e-02
268           	8.208500e-02	5.822540e-02	1.363200e-02	5.926930e-02
269           	8.173650e-02	5.624870e-02	1.332390e-02	5.749910e-02
270           	8.238820e-02	5.576910e-02	1.330670e-02	5.734980e-02
271           	8.227530e-02	5.572170e-02	1.344870e-02	5.874550e-02
272           	8.291550e-02	5.643150e-02	1.390480e-02	6.193310e-02
273           	8.460350e-02	6.017270e-02	1.501000e-02	6.527470e-02
274           	8.579040e-02	6.538910e-02	1.647560e-02	6.823670e-02
275           	8.476420e-02	7.076930e-02	1.782280e-02	7.247820e-02
276           	8.440770e-02	7.538070e-02	1.871020e-02	7.687590e-02
277           	8.368840e-02	7.679450e-02	1.881750e-02	7.785510e-02
278           	8.151620e-02	7.642520e-02	1.843370e-02	7.772010e-02
279           	8.016560e-02	7.453030e-02	1.788470e-02	7.613130e-02
280           	7.941520e-02	7.160220e-02	1.728230e-02	7.330120e-02
281           	7.934370e-02	6.882660e-02	1.690690e-02	7.029930e-02
282           	7.892010e-02	6.708020e-02	1.704080e-02	6.890090e-02
283           	7.990690e-02	6.471680e-02	1.676750e-02	6.819480e-02
284           	7.909430e-02	6.377560e-02	1.638680e-02	6.762320e-02
285           	8.087670e-02	6.469500e-02	1.579740e-02	6.685620e-02
286           	8.327130e-02	6.603390e-02	1.597950e-02	6.664030e-02
287           	8.565420e-02	6.612470e-02	1.606930e-02	6.546750e-02
288           	8.519200e-02	6.498410e-02	1.574910e-02	6.262100e-02
289           	8.565020e-02	6.450770e-02	1.520760e-02	5.955510e-02
290           	8.456320e-02	6.349300e-02	1.482740e-02	5.870080e-02
291           	8.419210e-02	6.307780e-02	1.473750e-02	5.986180e-02
292           	8.604230e-02	6.376530e-02	1.490420e-02	6.163380e-02
293           	8.731160e-02	6.363030e-02	1.472960e-02	6.165800e-02
294           	8.503300e-02	6.265980e-02	1.414840e-02	5.966980e-02
295           	8.153510e-02	5.927700e-02	1.359420e-02	5.592850e-02
296           	7.850190e-02	5.545890e-02	1.329470e-02	5.378580e-02
297           	7.513670e-02	5.273470e-02	1.310510e-02	5.244170e-02
298           	7.450930e-02	5.153070e-02	1.286170e-02	5.258790e-02
299           	7.654910e-02	5.081430e-02	1.252340e-02	5.218220e-02
300           	7.769610e-02	5.102700e-02	1.218570e-02	5.096080e-02
301           	7.797360e-02	5.205810e-02	1.233200e-02	5.134840e-02
302           	7.742970e-02	5.333440e-02	1.262640e-02	5.209620e-02
303           	7.742160e-02	5.485950e-02	1.306820e-02	5.282980e-02
304           	7.710920e-02	5.731050e-02	1.353870e-02	5.339830e-02
305           	7.761640e-02	5.928030e-02	1.370960e-02	5.448020e-02
306           	7.877560e-02	5.951130e-02	1.350970e-02	5.429440e-02
307           	7.885600e-02	5.808810e-02	1.334900e-02	5.382760e-02
308           	7.948090e-02	5.594880e-02	1.346230e-02	5.473990e-02
309           	8.025390e-02	5.391900e-02	1.349510e-02	5.520340e-02
310           	8.101400e-02	5.346700e-02	1.377390e-02	5.583790e-02
311           	8.326510e-02	5.471570e-02	1.446030e-02	5.716470e-02
312           	8.326270e-02	5.736820e-02	1.519380e-02	5.938370e-02
313           	8.549330e-02	6.034500e-02	1.571370e-02	6.058030e-02
314           	8.844070e-02	6.302680e-02	1.563490e-02	6.133660e-02
315           	8.891150e-02	6.435600e-02	1.519310e-02	6.138430e-02
316           	8.630990e-02	6.311320e-02	1.473760e-02	6.027280e-02
317           	8.214940e-02	6.098090e-02	1.439050e-02	5.876020e-02
318           	7.807530e-02	5.983720e-02	1.407800e-02	5.823180e-02
319           	7.568940e-02	5.933180e-02	1.401180e-02	5.831270e-02
320           	7.547640e-02	5.884970e-02	1.398270e-02	5.734860e-02
321           	7.767760e-02	5.859800e-02	1.388700e-02	5.595560e-02
322           	7.838090e-02	5.719240e-02	1.381040e-02	5.543620e-02
323           	7.966530e-02	5.600790e-02	1.367120e-02	5.479690e-02
324           	7.907390e-02	5.457010e-02	1.324270e-02	5.388630e-02
325           	7.666330e-02	5.262380e-02	1.272260e-02	5.181750e-02
326           	7.287870e-02	5.091100e-02	1.224730e-02	4.952170e-02
327           	7.108590e-02	4.934120e-02	1.194930e-02	4.723750e-02
328           	7.216610e-02	4.820550e-02	1.161650e-02	4.577740e-02
329           	7.410340e-02	4.941790e-02	1.171420e-02	4.635910e-02
330           	7.557870e-02	5.066070e-02	1.187520e-02	4.806680e-02
331           	7.593620e-02	5.040630e-02	1.161560e-02	4.769180e-02
332           	7.480280e-02	4.980610e-02	1.135280e-02	4.629050e-02
333           	7.360130e-02	4.878840e-02	1.110470e-02	4.561200e-02
334           	7.261720e-02	4.763440e-02	1.081160e-02	4.544350e-02
335           	7.192800e-02	4.696950e-02	1.050490e-02	4.347900e-02
336           	7.266740e-02	4.687480e-02	1.045820e-02	4.127600e-02
337           	7.243080e-02	4.707930e-02	1.069640e-02	4.076400e-02
338           	7.210390e-02	4.703610e-02	1.076800e-02	4.070540e-02
339           	7.209870e-02	4.681590e-02	1.081000e-02	4.120330e-02
340           	7.334990e-02	4.689130e-02	1.081340e-02	4.222820e-02
341           	7.642480e-02	4.809440e-02	1.131020e-02	4.441090e-02
342           	7.902650e-02	5.080370e-02	1.178920e-02	4.714420e-02
343           	8.223180e-02	5.423630e-02	1.237340e-02	4.924180e-02
344           	8.555140e-02	5.866160e-02	1.304190e-02	5.164840e-02
345           	8.776380e-02	6.228040e-02	1.368290e-02	5.371540e-02
346           	8.793060e-02	6.503280e-02	1.441750e-02	5.672490e-02
347           	8.874680e-02	6.752670e-02	1.538570e-02	6.005510e-02
348           	8.821510e-02	6.974220e-02	1.648370e-02	6.433350e-02
349           	8.982690e-02	7.000630e-02	1.683940e-02	6.703920e-02
350           	9.290930e-02	6.815350e-02	1.613710e-02	6.651440e-02
351           	9.312370e-02	6.602160e-02	1.528060e-02	6.380370e-02
352           	9.096830e-02	6.519450e-02	1.497130e-02	6.145960e-02
353           	8.868940e-02	6.683560e-02	1.534730e-02	6.057310e-02
354           	8.741290e-02	6.951250e-02	1.582860e-02	6.073880e-02
355           	8.806570e-02	7.230540e-02	1.621920e-02	6.111450e-02
356           	9.021110e-02	7.420380e-02	1.652390e-02	6.124270e-02
357           	9.401820e-02	7.474780e-02	1.658100e-02	6.165320e-02
358           	9.715230e-02	7.389280e-02	1.612420e-02	6.208520e-02
359           	9.596310e-02	7.092260e-02	1.542810e-02	6.196980e-02
360           	9.456930e-02	6.624980e-02	1.509190e-02	6.138490e-02
361           	9.143440e-02	6.294330e-02	1.469450e-02	6.013510e-02
362           	8.582970e-02	6.122090e-02	1.464590e-02	5.903650e-02
363           	8.296410e-02	6.112320e-02	1.473950e-02	5.855420e-02
364           	8.146650e-02	6.116420e-02	1.455630e-02	5.717280e-02
365           	7.993820e-02	6.054760e-02	1.421590e-02	5.554900e-02
366           	7.924660e-02	5.917930e-02	1.381680e-02	5.373030e-02
367           	7.865640e-02	5.761610e-02	1.357900e-02	5.265960e-02
368           	7.753330e-02	5.659770e-02	1.347940e-02	5.263550e-02
369           	7.515480e-02	5.595050e-02	1.350430e-02	5.248530e-02
370           	7.406480e-02	5.581120e-02	1.398070e-02	5.278470e-02
371           	7.580300e-02	5.744420e-02	1.490960e-02	5.538460e-02
372           	8.131380e-02	5.922330e-02	1.583660e-02	5.861550e-02
373           	8.957980e-02	6.178340e-02	1.654560e-02	6.232910e-02
374           	9.245320e-02	6.349820e-02	1.657060e-02	6.470730e-02
375           	9.237490e-02	6.350900e-02	1.607200e-02	6.493900e-02
376           	9.084130e-02	6.432910e-02	1.587300e-02	6.478400e-02
377           	8.867050e-02	6.498190e-02	1.607420e-02	6.568560e-02
378           	8.570740e-02	6.543980e-02	1.643210e-02	6.749130e-02
379           	8.413230e-02	6.498930e-02	1.681270e-02	6.754710e-02
380           	8.158410e-02	6.435030e-02	1.679860e-02	6.533180e-02
381           	8.038140e-02	6.360220e-02	1.656210e-02	6.250880e-02
382           	7.935460e-02	6.105770e-02	1.572820e-02	5.954040e-02
383           	7.637130e-02	5.765800e-02	1.442340e-02	5.638640e-02
384           	7.276920e-02	5.383950e-02	1.318820e-02	5.328040e-02
385           	7.137690e-02	5.102950e-02	1.209750e-02	5.004880e-02
386           	6.955510e-02	4.929470e-02	1.124020e-02	4.651910e-02
387           	6.879860e-02	4.796380e-02	1.084180e-02	4.448460e-02
388           	7.071310e-02	4.824260e-02	1.098060e-02	4.499150e-02
389           	7.469240e-02	4.969790e-02	1.131580e-02	4.636320e-02
390           	7.750580e-02	5.199180e-02	1.195160e-02	4.763710e-02
391           	7.984520e-02	5.403340e-02	1.275840e-02	4.958770e-02
392           	8.162340e-02	5.589240e-02	1.374550e-02	5.254700e-02
393           	8.461170e-02	5.799310e-02	1.491810e-02	5.739520e-02
394           	8.512440e-02	6.114270e-02	1.610450e-02	6.399930e-02
395           	8.406030e-02	6.488040e-02	1.731940e-02	6.953770e-02
396           	8.514120e-02	6.931730e-02	1.841950e-02	7.318560e-02
397           	8.635560e-02	7.375420e-02	1.891500e-02	7.429680e-02
398           	8.876070e-02	7.842800e-02	1.945130e-02	7.330950e-02
399           	9.155040e-02	8.267450e-02	1.976890e-02	7.131890e-02
400           	9.381940e-02	8.422690e-02	1.959690e-02	7.031800e-02
401           	9.554830e-02	8.212640e-02	1.918280e-02	7.083440e-02
402           	9.719830e-02	7.787860e-02	1.880580e-02	7.180580e-02
403           	9.851440e-02	7.602340e-02	1.863870e-02	7.404190e-02
404           	9.958040e-02	7.601490e-02	1.862820e-02	7.613610e-02
405           	1.007200e-01	7.559250e-02	1.880070e-02	7.768560e-02
406           	9.940570e-02	7.601410e-02	1.863510e-02	7.815710e-02
407           	9.502730e-02	7.689180e-02	1.877490e-02	7.658300e-02
408           	8.663090e-02	7.790320e-02	1.890680e-02	7.559140e-02
409           	8.223790e-02	7.832970e-02	1.850300e-02	7.350540e-02
410           	8.408070e-02	7.770680e-02	1.791740e-02	7.042620e-02
411           	8.341820e-02	7.468030e-02	1.718530e-02	6.679260e-02
412           	8.030460e-02	6.831690e-02	1.619780e-02	6.362550e-02
413           	7.671570e-02	6.166100e-02	1.509410e-02	6.112340e-02
414           	7.322370e-02	5.776400e-02	1.418470e-02	5.862010e-02
415           	6.945470e-02	5.565930e-02	1.330450e-02	5.693780e-02
416           	6.799420e-02	5.429070e-02	1.259480e-02	5.501590e-02
417           	6.825370e-02	5.345110e-02	1.212360e-02	5.365600e-02
418           	6.850520e-02	5.164620e-02	1.158910e-02	5.110680e-02
419           	6.936880e-02	4.980370e-02	1.134010e-02	4.898710e-02
420           	7.021390e-02	4.839850e-02	1.111940e-02	4.694770e-02
421           	7.210690e-02	4.712600e-02	1.097150e-02	4.488230e-02
422           	7.413970e-02	4.599800e-02	1.086730e-02	4.335000e-02
423           	7.491530e-02	4.516430e-02	1.080480e-02	4.231220e-02
424           	7.372640e-02	4.451930e-02	1.077900e-02	4.188310e-02
425           	7.269330e-02	4.368500e-02	1.093520e-02	4.269290e-02
426           	7.147720e-02	4.388820e-02	1.129200e-02	4.479880e-02
427           	7.127200e-02	4.560830e-02	1.181570e-02	4.762720e-02
428           	7.281910e-02	4.808250e-02	1.238230e-02	5.101400e-02
429           	7.511860e-02	5.118030e-02	1.285380e-02	5.502060e-02
430           	7.757020e-02	5.455300e-02	1.344490e-02	5.884290e-02
431           	8.093170e-02	5.787060e-02	1.406790e-02	6.194360e-02
432           	8.402180e-02	6.131610e-02	1.524900e-02	6.549920e-02
433           	8.564750e-02	6.414550e-02	1.644070e-02	6.887730e-02
434           	8.612220e-02	6.705750e-02	1.741270e-02	7.225220e-02
435           	8.852870e-02	7.151420e-02	1.843440e-02	7.635790e-02
436           	9.286080e-02	7.588000e-02	1.901810e-02	7.921750e-02
437           	9.531250e-02	7.769760e-02	1.893310e-02	7.942900e-02
438           	9.428610e-02	7.716550e-02	1.806110e-02	7.603080e-02
439           	9.042160e-02	7.427350e-02	1.745460e-02	7.150900e-02
440           	8.748360e-02	6.989830e-02	1.742000e-02	6.696300e-02
441           	8.455290e-02	6.588870e-02	1.739240e-02	6.454890e-02
442           	8.484670e-02	6.207380e-02	1.681450e-02	6.289330e-02
443           	8.614880e-02	5.858720e-02	1.613060e-02	6.070990e-02
444           	8.810090e-02	5.651360e-02	1.534460e-02	5.876190e-02
445           	8.564590e-02	5.501000e-02	1.441660e-02	5.644520e-02
446           	8.085330e-02	5.297450e-02	1.315410e-02	5.409250e-02