# Residuals   
# Time        	p             	Ux            	Uy            	Uz            
1             	1.000000e+00	4.777490e-01	1.000000e+00	4.311610e-01
2             	4.353170e-01	6.000790e-01	2.570220e-01	5.960400e-01
3             	4.643070e-02	4.886400e-01	1.578180e-01	4.602690e-01
4             	5.567920e-02	3.325050e-01	1.032670e-01	2.991800e-01
5             	8.735880e-02	2.574930e-01	7.929950e-02	2.383500e-01
6             	1.205940e-01	2.163680e-01	6.397970e-02	2.079380e-01
7             	1.323320e-01	1.828760e-01	5.497760e-02	1.758220e-01
8             	1.209700e-01	1.528560e-01	4.900430e-02	1.464920e-01
9             	1.076270e-01	1.281970e-01	4.308090e-02	1.170820e-01
10            	8.150330e-02	1.190890e-01	3.664210e-02	1.064110e-01
11            	6.488070e-02	1.100320e-01	3.088950e-02	1.016740e-01
12            	5.907620e-02	9.727700e-02	2.621970e-02	9.183980e-02
13            	5.729440e-02	8.307800e-02	2.298020e-02	7.968080e-02
14            	5.852430e-02	7.260200e-02	2.085280e-02	7.035860e-02
15            	6.378370e-02	6.584640e-02	1.928870e-02	6.417350e-02
16            	6.749190e-02	6.160290e-02	1.763150e-02	5.866060e-02
17            	7.056590e-02	5.837440e-02	1.607770e-02	5.452260e-02
18            	7.239250e-02	5.536650e-02	1.440310e-02	5.187950e-02
19            	7.344040e-02	5.254950e-02	1.273920e-02	4.965190e-02
20            	7.289270e-02	5.007280e-02	1.138490e-02	4.765440e-02
21            	7.083810e-02	4.806130e-02	1.054590e-02	4.601190e-02
22            	7.133620e-02	4.587820e-02	9.971590e-03	4.400130e-02
23            	7.363710e-02	4.438970e-02	9.684130e-03	4.291390e-02
24            	7.677570e-02	4.331750e-02	9.458260e-03	4.235440e-02
25            	7.882290e-02	4.253630e-02	9.329420e-03	4.174400e-02
26            	7.971530e-02	4.125700e-02	9.075020e-03	4.071150e-02
27            	7.943750e-02	4.054170e-02	9.028980e-03	4.031460e-02
28            	7.744280e-02	4.018350e-02	9.113440e-03	4.006420e-02
29            	7.574660e-02	3.967290e-02	9.042940e-03	3.964650e-02
30            	7.518090e-02	3.914770e-02	8.803490e-03	3.912700e-02
31            	7.448590e-02	3.839810e-02	8.510050e-03	3.845860e-02
32            	7.332050e-02	3.732510e-02	8.195270e-03	3.700160e-02
33            	7.263650e-02	3.666710e-02	8.015560e-03	3.587200e-02
34            	7.235420e-02	3.664800e-02	8.123150e-03	3.553380e-02
35            	7.040930e-02	3.746950e-02	8.384290e-03	3.656330e-02
36            	6.752430e-02	3.770820e-02	8.509440e-03	3.724610e-02
37            	6.636140e-02	3.808360e-02	8.471230e-03	3.762890e-02
38            	6.711690e-02	3.842000e-02	8.488150e-03	3.800940e-02
39            	6.820240e-02	3.909370e-02	8.670130e-03	3.958200e-02
40            	6.868200e-02	4.070760e-02	8.947130e-03	4.108210e-02
41            	6.884120e-02	4.283400e-02	9.542580e-03	4.220080e-02
42            	6.926910e-02	4.542360e-02	1.040710e-02	4.454730e-02
43            	7.159880e-02	4.765400e-02	1.130390e-02	4.726800e-02
44            	7.411830e-02	4.985020e-02	1.211760e-02	5.042920e-02
45            	7.649570e-02	5.044800e-02	1.265350e-02	5.259760e-02
46            	7.697390e-02	5.071750e-02	1.263940e-02	5.238360e-02
47            	7.620410e-02	4.912060e-02	1.205760e-02	4.972670e-02
48            	7.540730e-02	4.645010e-02	1.125210e-02	4.630730e-02
49            	7.466770e-02	4.455530e-02	1.061380e-02	4.455710e-02
50            	7.261270e-02	4.335500e-02	1.009070e-02	4.300110e-02
51            	7.173520e-02	4.244680e-02	9.750770e-03	4.124860e-02
52            	7.282690e-02	4.223490e-02	9.520360e-03	4.030030e-02
53            	7.359010e-02	4.173140e-02	9.273330e-03	3.946410e-02
54            	7.172500e-02	4.122070e-02	9.039160e-03	3.934250e-02
55            	7.071470e-02	4.062290e-02	9.049840e-03	3.991170e-02
56            	7.148970e-02	4.095080e-02	9.366850e-03	4.108530e-02
57            	7.169310e-02	4.153480e-02	9.746910e-03	4.263980e-02
58            	7.048180e-02	4.180790e-02	9.989850e-03	4.296850e-02
59            	6.924100e-02	4.164410e-02	9.772000e-03	4.235280e-02
60            	7.026980e-02	4.102150e-02	9.388930e-03	4.115280e-02
61            	7.141060e-02	4.126220e-02	9.062590e-03	4.026390e-02
62            	7.323190e-02	4.188160e-02	8.965800e-03	4.054340e-02
63            	7.246380e-02	4.234870e-02	9.072970e-03	4.117290e-02
64            	7.124370e-02	4.273230e-02	9.196150e-03	4.167300e-02
65            	7.101110e-02	4.299780e-02	9.417000e-03	4.166640e-02
66            	7.197340e-02	4.371530e-02	9.806660e-03	4.167120e-02
67            	7.448380e-02	4.486080e-02	1.037750e-02	4.259050e-02
68            	7.749300e-02	4.633730e-02	1.092540e-02	4.439160e-02
69            	8.002960e-02	4.753150e-02	1.143540e-02	4.668440e-02
70            	8.191980e-02	4.921610e-02	1.175780e-02	4.815540e-02
71            	8.371940e-02	4.939770e-02	1.151500e-02	4.756240e-02
72            	8.510670e-02	4.826450e-02	1.099870e-02	4.557720e-02
73            	8.388740e-02	4.839270e-02	1.091450e-02	4.519950e-02
74            	8.025170e-02	4.885200e-02	1.128790e-02	4.534510e-02
75            	7.868040e-02	4.923800e-02	1.157360e-02	4.562520e-02
76            	7.854330e-02	5.038450e-02	1.188940e-02	4.696190e-02
77            	8.147190e-02	5.252740e-02	1.231280e-02	4.902220e-02
78            	8.524370e-02	5.589610e-02	1.310720e-02	5.246940e-02
79            	9.004580e-02	5.986160e-02	1.423840e-02	5.651080e-02
80            	9.235060e-02	6.119640e-02	1.487700e-02	5.938720e-02
81            	9.050860e-02	5.891460e-02	1.472940e-02	5.984170e-02
82            	8.606600e-02	5.484550e-02	1.419720e-02	5.724620e-02
83            	8.118920e-02	5.258730e-02	1.389980e-02	5.417810e-02
84            	7.858130e-02	5.167850e-02	1.374270e-02	5.190560e-02
85            	7.804410e-02	5.235350e-02	1.344980e-02	5.141940e-02
86            	7.884220e-02	5.206210e-02	1.299330e-02	5.208880e-02
87            	7.934920e-02	5.048650e-02	1.238850e-02	5.211070e-02
88            	7.849600e-02	4.920390e-02	1.188060e-02	5.168190e-02
89            	7.696060e-02	4.809090e-02	1.129950e-02	5.040420e-02
90            	7.708900e-02	4.601290e-02	1.057800e-02	4.792450e-02
91            	7.615920e-02	4.295030e-02	9.932540e-03	4.478290e-02
92            	7.556250e-02	4.048610e-02	9.475740e-03	4.210900e-02
93            	7.480640e-02	3.933360e-02	9.152210e-03	4.013530e-02
94            	7.255160e-02	3.843700e-02	8.906730e-03	3.821580e-02
95            	7.029460e-02	3.737610e-02	8.675720e-03	3.683090e-02
96            	6.818230e-02	3.737120e-02	8.549540e-03	3.645320e-02
97            	6.703800e-02	3.693210e-02	8.614560e-03	3.645490e-02
98            	6.701830e-02	3.718800e-02	8.824670e-03	3.710170e-02
99            	6.885170e-02	3.794090e-02	9.117640e-03	3.789740e-02
100           	7.013550e-02	3.894940e-02	9.392030e-03	3.890230e-02
101           	6.987290e-02	4.026150e-02	9.584400e-03	3.965450e-02
102           	7.074990e-02	4.172480e-02	9.916410e-03	4.133410e-02
103           	7.118580e-02	4.332130e-02	1.044930e-02	4.276410e-02
104           	7.288170e-02	4.507070e-02	1.110850e-02	4.402840e-02
105           	7.542900e-02	4.686840e-02	1.186150e-02	4.558150e-02
106           	7.888450e-02	4.877200e-02	1.250360e-02	4.751100e-02
107           	8.183140e-02	5.138740e-02	1.311970e-02	4.972740e-02
108           	8.365890e-02	5.410420e-02	1.374950e-02	5.249250e-02
109           	8.562510e-02	5.813300e-02	1.474240e-02	5.716020e-02
110           	9.119470e-02	6.375250e-02	1.586390e-02	6.354400e-02
111           	9.734330e-02	6.881170e-02	1.702260e-02	6.945300e-02
112           	9.960880e-02	7.183850e-02	1.792330e-02	7.318650e-02
113           	9.923240e-02	7.219670e-02	1.871910e-02	7.742880e-02
114           	9.624210e-02	7.215580e-02	1.974030e-02	8.140770e-02
115           	9.524180e-02	7.475880e-02	2.069590e-02	8.276500e-02
116           	9.270080e-02	7.735840e-02	2.069890e-02	7.981180e-02
117           	8.834550e-02	7.748920e-02	2.048560e-02	7.554650e-02
118           	8.327930e-02	7.552150e-02	1.989400e-02	7.142300e-02
119           	7.962440e-02	7.116160e-02	1.878180e-02	6.813260e-02
120           	7.856660e-02	6.606190e-02	1.717550e-02	6.516880e-02
121           	7.789700e-02	6.233560e-02	1.565650e-02	6.287360e-02
122           	7.873730e-02	6.092170e-02	1.458380e-02	6.037240e-02
123           	7.915090e-02	6.043410e-02	1.422410e-02	5.869090e-02
124           	7.867140e-02	6.039410e-02	1.422970e-02	5.756450e-02
125           	8.170920e-02	5.876470e-02	1.400670e-02	5.683810e-02
126           	8.156610e-02	5.644250e-02	1.369770e-02	5.604700e-02
127           	7.959200e-02	5.451560e-02	1.315500e-02	5.436970e-02
128           	7.869390e-02	5.270150e-02	1.248420e-02	5.233730e-02
129           	7.743320e-02	5.121100e-02	1.187410e-02	5.039010e-02
130           	7.665480e-02	4.958660e-02	1.190330e-02	4.840460e-02
131           	7.508700e-02	4.717370e-02	1.200990e-02	4.637370e-02
132           	7.263700e-02	4.564260e-02	1.199130e-02	4.593950e-02
133           	7.178820e-02	4.529930e-02	1.191470e-02	4.776480e-02
134           	7.396590e-02	4.607100e-02	1.201030e-02	5.005340e-02
135           	7.714680e-02	4.770740e-02	1.217600e-02	5.288490e-02
136           	7.989720e-02	4.900290e-02	1.234010e-02	5.443790e-02
137           	8.166950e-02	5.088780e-02	1.253410e-02	5.553200e-02
138           	8.367810e-02	5.337310e-02	1.278650e-02	5.564180e-02
139           	8.334180e-02	5.688210e-02	1.298890e-02	5.528000e-02
140           	8.120980e-02	5.855950e-02	1.313060e-02	5.426580e-02
141           	7.829870e-02	5.867990e-02	1.346730e-02	5.370870e-02
142           	7.721830e-02	5.847390e-02	1.358660e-02	5.473730e-02
143           	7.759300e-02	5.789380e-02	1.389300e-02	5.514660e-02
144           	7.925850e-02	5.675680e-02	1.429840e-02	5.585000e-02
145           	7.896190e-02	5.516680e-02	1.434160e-02	5.584070e-02
146           	7.643800e-02	5.401170e-02	1.391520e-02	5.424350e-02
147           	7.489240e-02	5.359540e-02	1.356820e-02	5.307530e-02
148           	7.295530e-02	5.276110e-02	1.338140e-02	5.249940e-02
149           	7.226990e-02	5.222030e-02	1.326210e-02	5.226750e-02
150           	7.491580e-02	5.249790e-02	1.327010e-02	5.190130e-02
151           	7.627910e-02	5.287930e-02	1.311990e-02	5.136110e-02
152           	7.751380e-02	5.288030e-02	1.265250e-02	5.074530e-02
153           	7.883460e-02	5.289680e-02	1.235820e-02	5.090510e-02
154           	7.793990e-02	5.260640e-02	1.209130e-02	5.025610e-02
155           	7.634010e-02	5.202790e-02	1.199740e-02	4.947310e-02
156           	7.475670e-02	5.198130e-02	1.206960e-02	4.944630e-02
157           	7.455360e-02	5.252130e-02	1.248000e-02	5.086780e-02
158           	7.484240e-02	5.387250e-02	1.313960e-02	5.336390e-02
159           	7.815840e-02	5.594920e-02	1.370420e-02	5.680400e-02
160           	8.149310e-02	5.830250e-02	1.406660e-02	5.924680e-02
161           	8.356560e-02	6.069810e-02	1.428390e-02	6.002860e-02
162           	8.696560e-02	6.272680e-02	1.455110e-02	6.073900e-02
163           	8.834680e-02	6.357190e-02	1.525310e-02	6.157990e-02
164           	8.950500e-02	6.455760e-02	1.583360e-02	6.180430e-02
165           	8.797240e-02	6.601880e-02	1.686870e-02	6.228110e-02
166           	8.853490e-02	6.681820e-02	1.744860e-02	6.230550e-02
167           	8.426670e-02	6.633700e-02	1.681260e-02	6.166970e-02
168           	8.230700e-02	6.278200e-02	1.567120e-02	5.816940e-02
169           	7.899490e-02	5.917250e-02	1.473370e-02	5.429460e-02
170           	7.418190e-02	5.686170e-02	1.382710e-02	5.214150e-02
171           	7.103350e-02	5.461680e-02	1.304100e-02	5.103900e-02
172           	6.978290e-02	5.255870e-02	1.241660e-02	4.975810e-02
173           	7.401570e-02	5.068450e-02	1.211330e-02	4.764160e-02
174           	7.818280e-02	5.032100e-02	1.208510e-02	4.740800e-02
175           	7.903260e-02	5.058630e-02	1.221920e-02	4.775630e-02
176           	7.888400e-02	5.163950e-02	1.261460e-02	4.901290e-02
177           	7.902340e-02	5.355750e-02	1.315300e-02	5.040600e-02
178           	7.903080e-02	5.536620e-02	1.347980e-02	5.111410e-02
179           	7.864250e-02	5.435730e-02	1.308290e-02	4.942850e-02
180           	7.782370e-02	5.300690e-02	1.231270e-02	4.799260e-02
181           	7.544780e-02	5.152550e-02	1.188600e-02	4.678870e-02
182           	7.336010e-02	5.021160e-02	1.169910e-02	4.657610e-02
183           	7.310150e-02	5.032460e-02	1.171080e-02	4.715130e-02
184           	7.573350e-02	5.111640e-02	1.184480e-02	4.844820e-02
185           	7.731100e-02	5.217190e-02	1.198770e-02	4.931340e-02
186           	7.840310e-02	5.286390e-02	1.221390e-02	4.935440e-02
187           	7.854450e-02	5.282060e-02	1.240390e-02	4.860640e-02
188           	7.752050e-02	5.201040e-02	1.231600e-02	4.702480e-02
189           	7.696050e-02	5.106600e-02	1.226310e-02	4.638710e-02
190           	7.537810e-02	4.932120e-02	1.211050e-02	4.590140e-02
191           	7.368040e-02	4.772670e-02	1.192470e-02	4.588740e-02
192           	7.407520e-02	4.643160e-02	1.162850e-02	4.606650e-02
193           	7.418580e-02	4.570370e-02	1.139690e-02	4.571950e-02
194           	7.424810e-02	4.615900e-02	1.138350e-02	4.567810e-02
195           	7.338970e-02	4.711880e-02	1.149210e-02	4.604320e-02
196           	7.296760e-02	4.879720e-02	1.194810e-02	4.816950e-02
197           	7.419100e-02	5.185250e-02	1.262710e-02	5.196560e-02
198           	7.548680e-02	5.575860e-02	1.347490e-02	5.587310e-02
199           	7.959020e-02	5.955270e-02	1.437470e-02	5.980730e-02
200           	8.482480e-02	6.310310e-02	1.538430e-02	6.332570e-02
201           	8.773600e-02	6.629540e-02	1.647040e-02	6.592420e-02
202           	9.083910e-02	6.981160e-02	1.755900e-02	6.808880e-02
203           	9.270820e-02	7.274810e-02	1.825810e-02	6.965140e-02
204           	9.098050e-02	7.480770e-02	1.870160e-02	6.972140e-02
205           	8.659250e-02	7.730720e-02	1.865890e-02	7.147150e-02
206           	8.759020e-02	7.844060e-02	1.857140e-02	7.447850e-02
207           	9.058030e-02	7.719030e-02	1.817600e-02	7.403850e-02
208           	9.087620e-02	7.360150e-02	1.764810e-02	7.105250e-02
209           	8.657500e-02	6.835080e-02	1.676500e-02	6.530070e-02
210           	8.408100e-02	6.374340e-02	1.553220e-02	6.147580e-02
211           	8.227410e-02	5.949650e-02	1.462260e-02	5.921730e-02
212           	8.128360e-02	5.747180e-02	1.405160e-02	5.801610e-02
213           	8.270040e-02	5.515100e-02	1.373340e-02	5.573830e-02
214           	8.192190e-02	5.351020e-02	1.352910e-02	5.292040e-02
215           	8.044880e-02	5.164940e-02	1.328960e-02	5.095780e-02
216           	8.121880e-02	4.992110e-02	1.285890e-02	4.958760e-02
217           	8.193470e-02	4.892980e-02	1.225030e-02	4.858130e-02
218           	8.141730e-02	4.821710e-02	1.199160e-02	4.915390e-02
219           	7.812830e-02	4.792510e-02	1.185560e-02	4.970230e-02
220           	7.489590e-02	4.791740e-02	1.184960e-02	5.036490e-02
221           	7.477190e-02	4.757570e-02	1.203380e-02	5.073750e-02
222           	7.638230e-02	4.750020e-02	1.190520e-02	5.067710e-02
223           	7.548550e-02	4.837760e-02	1.171580e-02	5.036660e-02
224           	7.333260e-02	4.964300e-02	1.171190e-02	5.060590e-02
225           	7.171780e-02	5.182720e-02	1.205610e-02	5.083250e-02
226           	7.005370e-02	5.334270e-02	1.235270e-02	4.998010e-02
227           	7.101860e-02	5.456460e-02	1.257930e-02	4.953710e-02
228           	7.356380e-02	5.518350e-02	1.273650e-02	5.007050e-02
229           	7.448340e-02	5.491450e-02	1.285780e-02	5.012620e-02
230           	7.659420e-02	5.485140e-02	1.319270e-02	5.076210e-02
231           	8.161230e-02	5.633830e-02	1.368540e-02	5.170060e-02
232           	8.439780e-02	5.833540e-02	1.385420e-02	5.231840e-02
233           	8.382000e-02	6.035470e-02	1.405930e-02	5.210370e-02
234           	8.297570e-02	6.264880e-02	1.432740e-02	5.386440e-02
235           	8.155200e-02	6.497610e-02	1.493780e-02	5.599300e-02
236           	8.072840e-02	6.543400e-02	1.579230e-02	5.746180e-02
237           	8.202050e-02	6.714760e-02	1.654290e-02	6.065130e-02
238           	8.246580e-02	6.915680e-02	1.710930e-02	6.498950e-02
239           	8.529650e-02	7.131750e-02	1.788530e-02	7.008900e-02
240           	8.676700e-02	7.355810e-02	1.895330e-02	7.525180e-02
241           	8.825290e-02	7.540000e-02	1.943490e-02	7.819620e-02
242           	8.928820e-02	7.643430e-02	1.944070e-02	7.727750e-02
243           	8.814460e-02	7.784120e-02	1.937080e-02	7.439470e-02
244           	8.572120e-02	8.142960e-02	1.955090e-02	7.388360e-02
245           	8.800390e-02	8.664570e-02	1.998670e-02	7.476550e-02
246           	9.065610e-02	8.870390e-02	2.044960e-02	7.483630e-02
247           	9.249010e-02	8.426670e-02	2.029860e-02	7.151890e-02
248           	9.065350e-02	7.520360e-02	1.886620e-02	6.539480e-02
249           	8.618520e-02	6.622650e-02	1.736140e-02	5.950640e-02
250           	8.251730e-02	6.130170e-02	1.553750e-02	5.640940e-02
251           	8.085400e-02	5.929430e-02	1.422770e-02	5.395540e-02
252           	8.013960e-02	5.812000e-02	1.338240e-02	5.261020e-02
253           	7.958690e-02	5.665240e-02	1.265520e-02	5.180120e-02
254           	7.819780e-02	5.448930e-02	1.217030e-02	5.039640e-02
255           	7.729900e-02	5.366250e-02	1.202450e-02	5.004460e-02
256           	7.814160e-02	5.400610e-02	1.199000e-02	5.073620e-02
257           	7.791710e-02	5.416820e-02	1.219390e-02	5.224180e-02
258           	7.748400e-02	5.386900e-02	1.256420e-02	5.400120e-02
259           	7.759070e-02	5.371970e-02	1.319610e-02	5.600570e-02
260           	7.714940e-02	5.571860e-02	1.402060e-02	5.826560e-02
261           	7.600260e-02	5.838030e-02	1.478490e-02	6.050960e-02
262           	7.498110e-02	6.047800e-02	1.556850e-02	6.282970e-02
263           	7.709970e-02	6.341070e-02	1.660710e-02	6.620140e-02
264           	8.068670e-02	6.881060e-02	1.795440e-02	7.018960e-02
265           	8.584450e-02	7.701180e-02	1.935100e-02	7.458490e-02
266           	9.171220e-02	8.302540e-02	2.046070e-02	7.780030e-02
267           	9.591720e-02	8.496570e-02	2.098090e-02	8.054380e-02
268           	9.683860e-02	8.515260e-02	2.089310e-02	8.094250e-02
269           	9.686990e-02	8.301950e-02	2.021210e-02	8.003670e-02
270           	9.803850e-02	7.810790e-02	1.949440e-02	7.924530e-02
271           	9.848520e-02	7.328450e-02	1.895890e-02	7.671440e-02
272           	9.699010e-02	7.051830e-02	1.918000e-02	7.446340e-02
273           	9.184300e-02	7.143640e-02	1.978800e-02	7.256510e-02
274           	8.609230e-02	7.330000e-02	2.007610e-02	7.050280e-02
275           	8.082400e-02	7.270360e-02	1.965830e-02	6.925450e-02
276           	7.721970e-02	7.004660e-02	1.837600e-02	6.828310e-02
277           	7.425570e-02	6.705110e-02	1.689700e-02	6.648760e-02
278           	7.359040e-02	6.469620e-02	1.547350e-02	6.490400e-02
279           	7.288000e-02	6.287360e-02	1.433000e-02	6.357510e-02
280           	7.522410e-02	6.173420e-02	1.350420e-02	6.096740e-02
281           	7.598510e-02	6.116840e-02	1.287940e-02	5.787140e-02
282           	7.469360e-02	6.021080e-02	1.259140e-02	5.545150e-02
283           	7.451580e-02	5.894630e-02	1.255380e-02	5.391850e-02
284           	7.649660e-02	5.777650e-02	1.257990e-02	5.344030e-02
285           	7.952190e-02	5.736420e-02	1.271990e-02	5.423260e-02
286           	8.306790e-02	5.724720e-02	1.286220e-02	5.560970e-02
287           	8.469080e-02	5.667610e-02	1.282190e-02	5.687770e-02
288           	8.367590e-02	5.530460e-02	1.252030e-02	5.643930e-02
289           	8.317920e-02	5.419420e-02	1.221540e-02	5.519140e-02
290           	8.329420e-02	5.428070e-02	1.212650e-02	5.397000e-02
291           	8.198640e-02	5.341060e-02	1.189570e-02	5.226390e-02
292           	8.018620e-02	5.036540e-02	1.147770e-02	5.073760e-02
293           	7.949720e-02	4.913530e-02	1.133080e-02	5.133210e-02
294           	8.094950e-02	4.923940e-02	1.161570e-02	5.261420e-02
295           	8.192680e-02	4.997750e-02	1.209770e-02	5.290150e-02
296           	8.284020e-02	5.058540e-02	1.280550e-02	5.211610e-02
297           	8.325450e-02	5.080230e-02	1.321360e-02	5.089270e-02
298           	8.273230e-02	5.142190e-02	1.331350e-02	5.039120e-02
299           	7.994230e-02	5.203340e-02	1.343980e-02	5.113470e-02
300           	7.864720e-02	5.250910e-02	1.331160e-02	5.208740e-02
301           	7.900560e-02	5.404540e-02	1.322920e-02	5.419300e-02
302           	8.178460e-02	5.608270e-02	1.325000e-02	5.520880e-02
303           	8.398840e-02	5.888400e-02	1.343600e-02	5.617600e-02
304           	8.527890e-02	6.068880e-02	1.380700e-02	5.700230e-02
305           	8.573870e-02	6.240410e-02	1.466860e-02	5.800230e-02
306           	8.787200e-02	6.526310e-02	1.574910e-02	6.092100e-02
307           	9.196060e-02	6.720760e-02	1.668470e-02	6.370780e-02
308           	9.519150e-02	6.777570e-02	1.724460e-02	6.529980e-02
309           	9.488570e-02	6.587580e-02	1.687750e-02	6.429050e-02
310           	8.947530e-02	6.222900e-02	1.610910e-02	6.229870e-02
311           	8.585460e-02	5.735940e-02	1.522990e-02	5.843860e-02
312           	8.171560e-02	5.358300e-02	1.449280e-02	5.513290e-02
313           	7.860500e-02	5.076500e-02	1.383140e-02	5.245030e-02
314           	7.788650e-02	5.013450e-02	1.307050e-02	5.090320e-02
315           	7.731280e-02	5.012020e-02	1.229760e-02	4.959450e-02
316           	7.605610e-02	5.019570e-02	1.175580e-02	4.849660e-02
317           	7.492470e-02	5.029980e-02	1.158470e-02	4.800530e-02
318           	7.373250e-02	5.051600e-02	1.179040e-02	4.837260e-02
319           	7.468020e-02	5.125550e-02	1.227790e-02	4.979420e-02
320           	7.569690e-02	5.208790e-02	1.269410e-02	5.195680e-02
321           	7.839940e-02	5.304420e-02	1.279770e-02	5.284840e-02
322           	8.178030e-02	5.400680e-02	1.281510e-02	5.287280e-02
323           	8.527580e-02	5.491060e-02	1.283740e-02	5.366080e-02
324           	8.832160e-02	5.753490e-02	1.323660e-02	5.627380e-02
325           	8.936780e-02	6.020370e-02	1.439340e-02	6.039240e-02
326           	8.988760e-02	6.169560e-02	1.540730e-02	6.459740e-02
327           	8.957460e-02	6.114130e-02	1.569170e-02	6.601380e-02
328           	8.918930e-02	5.957280e-02	1.557790e-02	6.404800e-02
329           	8.675160e-02	5.876680e-02	1.499470e-02	6.020940e-02
330           	8.417330e-02	5.861980e-02	1.423530e-02	5.658650e-02
331           	8.170620e-02	5.754620e-02	1.358730e-02	5.488340e-02
332           	7.990580e-02	5.582030e-02	1.289410e-02	5.403890e-02
333           	8.017160e-02	5.321110e-02	1.258640e-02	5.232440e-02
334           	7.885070e-02	5.062580e-02	1.226840e-02	4.957310e-02
335           	7.643730e-02	4.958890e-02	1.190650e-02	4.677840e-02
336           	7.505950e-02	4.882130e-02	1.158640e-02	4.530340e-02
337           	7.394490e-02	4.861830e-02	1.161760e-02	4.513700e-02
338           	7.443900e-02	4.867210e-02	1.174090e-02	4.528960e-02
339           	7.661770e-02	4.956300e-02	1.211190e-02	4.660940e-02
340           	7.922200e-02	5.113190e-02	1.247730e-02	4.881470e-02
341           	8.146860e-02	5.292650e-02	1.273460e-02	5.052650e-02
342           	8.290230e-02	5.374120e-02	1.283350e-02	5.243610e-02
343           	8.633450e-02	5.415880e-02	1.282230e-02	5.430480e-02
344           	8.797850e-02	5.563140e-02	1.303050e-02	5.727760e-02
345           	8.963990e-02	5.787410e-02	1.376320e-02	6.078840e-02
346           	8.994800e-02	6.123010e-02	1.470160e-02	6.516850e-02
347           	8.864470e-02	6.406770e-02	1.590270e-02	6.795150e-02
348           	8.816060e-02	6.668700e-02	1.717870e-02	6.966510e-02
349           	8.847310e-02	6.853720e-02	1.797430e-02	7.021130e-02
350           	8.947730e-02	6.753520e-02	1.857740e-02	6.875970e-02
351           	8.810530e-02	6.651830e-02	1.853520e-02	6.698630e-02
352           	8.231450e-02	6.454560e-02	1.778100e-02	6.457710e-02
353           	7.556680e-02	6.186180e-02	1.650090e-02	6.219190e-02
354           	7.062250e-02	5.786710e-02	1.484030e-02	5.822570e-02
355           	6.732790e-02	5.330960e-02	1.334590e-02	5.315050e-02
356           	6.635240e-02	5.027520e-02	1.226650e-02	4.984190e-02
357           	6.717640e-02	4.886840e-02	1.182730e-02	4.870330e-02
358           	6.938800e-02	4.778140e-02	1.172440e-02	4.789820e-02
359           	7.326520e-02	4.646480e-02	1.143580e-02	4.661830e-02
360           	7.594330e-02	4.519050e-02	1.116980e-02	4.489020e-02
361           	7.639100e-02	4.466140e-02	1.102860e-02	4.419490e-02
362           	7.496360e-02	4.479280e-02	1.101080e-02	4.447110e-02
363           	7.490620e-02	4.528760e-02	1.109130e-02	4.457020e-02
364           	7.583060e-02	4.616780e-02	1.121060e-02	4.593270e-02
365           	7.665910e-02	4.705190e-02	1.131390e-02	4.737280e-02
366           	7.784290e-02	4.905240e-02	1.146440e-02	4.967090e-02
367           	7.698340e-02	5.197890e-02	1.163650e-02	5.112660e-02
368           	7.659370e-02	5.376890e-02	1.169440e-02	5.154480e-02
369           	7.532140e-02	5.414660e-02	1.197120e-02	5.055260e-02
370           	7.496140e-02	5.479210e-02	1.242600e-02	4.994840e-02
371           	7.391500e-02	5.678110e-02	1.296340e-02	5.100120e-02
372           	7.555700e-02	5.738840e-02	1.332480e-02	5.182710e-02
373           	7.774460e-02	5.658610e-02	1.349760e-02	5.188820e-02
374           	7.843520e-02	5.494310e-02	1.327770e-02	5.138060e-02
375           	7.723900e-02	5.179360e-02	1.281730e-02	4.997150e-02
376           	7.560440e-02	4.965780e-02	1.259190e-02	4.957620e-02
377           	7.388860e-02	4.805090e-02	1.241360e-02	4.878570e-02
378           	7.354570e-02	4.815900e-02	1.216710e-02	4.828000e-02
379           	7.412250e-02	4.982830e-02	1.218920e-02	4.836260e-02
380           	7.653060e-02	5.234680e-02	1.252580e-02	4.973280e-02
381           	7.946920e-02	5.484120e-02	1.313750e-02	5.193380e-02
382           	8.229280e-02	5.689280e-02	1.378060e-02	5.433650e-02
383           	8.554680e-02	5.903750e-02	1.430780e-02	5.624680e-02
384           	8.801170e-02	6.121750e-02	1.488400e-02	5.740400e-02
385           	8.858210e-02	6.331010e-02	1.552160e-02	5.935100e-02
386           	8.970000e-02	6.635990e-02	1.630160e-02	6.212400e-02
387           	9.167980e-02	6.958000e-02	1.718730e-02	6.686150e-02
388           	9.130130e-02	7.046110e-02	1.799350e-02	6.976170e-02
389           	9.068370e-02	6.911710e-02	1.871830e-02	7.085140e-02
390           	9.052130e-02	6.785840e-02	1.859390e-02	6.948920e-02
391           	8.631740e-02	6.707020e-02	1.784220e-02	6.714810e-02
392           	8.063090e-02	6.700340e-02	1.756840e-02	6.636580e-02
393           	7.619760e-02	6.888640e-02	1.773320e-02	6.723430e-02
394           	7.478820e-02	6.937850e-02	1.785910e-02	6.594350e-02
395           	7.548310e-02	6.894370e-02	1.751910e-02	6.422330e-02
396           	7.769300e-02	6.723320e-02	1.684640e-02	6.307550e-02
397           	7.824390e-02	6.355550e-02	1.591320e-02	6.095930e-02
398           	7.726740e-02	5.960060e-02	1.465170e-02	5.823370e-02
399           	7.466600e-02	5.647440e-02	1.371290e-02	5.577180e-02
400           	7.259260e-02	5.455550e-02	1.316300e-02	5.464680e-02
401           	7.412780e-02	5.373160e-02	1.328020e-02	5.508760e-02
402           	7.785960e-02	5.437920e-02	1.337780e-02	5.529890e-02
403           	8.152600e-02	5.658550e-02	1.346070e-02	5.668350e-02
404           	8.486290e-02	5.871200e-02	1.355140e-02	5.792790e-02
405           	8.610530e-02	6.031180e-02	1.373220e-02	5.835450e-02
406           	8.581130e-02	6.112000e-02	1.394630e-02	5.811270e-02
407           	8.582030e-02	6.109210e-02	1.412660e-02	5.753230e-02
408           	8.540270e-02	6.135080e-02	1.439620e-02	5.861770e-02
409           	8.565240e-02	6.241590e-02	1.463960e-02	6.122290e-02
410           	8.806230e-02	6.386680e-02	1.481130e-02	6.355310e-02
411           	9.035580e-02	6.462690e-02	1.477890e-02	6.383390e-02
412           	9.087980e-02	6.672250e-02	1.506570e-02	6.488540e-02
413           	8.972270e-02	6.911910e-02	1.534410e-02	6.523690e-02
414           	8.771740e-02	7.025340e-02	1.603630e-02	6.669700e-02
415           	8.699710e-02	7.086790e-02	1.705770e-02	6.918910e-02
416           	8.823790e-02	7.050870e-02	1.795700e-02	6.994620e-02
417           	9.038220e-02	6.915090e-02	1.795370e-02	6.903500e-02
418           	8.853220e-02	6.585550e-02	1.741690e-02	6.726710e-02
419           	8.545420e-02	6.220630e-02	1.626890e-02	6.394700e-02
420           	7.992620e-02	5.828200e-02	1.478830e-02	6.036280e-02
421           	7.553350e-02	5.625770e-02	1.382290e-02	5.741410e-02
422           	7.397220e-02	5.639720e-02	1.324180e-02	5.523940e-02
423           	7.248740e-02	5.791470e-02	1.309670e-02	5.468200e-02
424           	7.328370e-02	5.965960e-02	1.304880e-02	5.414070e-02
425           	7.395230e-02	6.045590e-02	1.298790e-02	5.348140e-02
426           	7.512840e-02	6.104340e-02	1.313560e-02	5.299520e-02
427           	7.712840e-02	6.140380e-02	1.338490e-02	5.292670e-02
428           	8.021150e-02	6.214010e-02	1.403360e-02	5.438630e-02
429           	8.266270e-02	6.323870e-02	1.476030e-02	5.681820e-02
430           	8.455910e-02	6.366890e-02	1.512310e-02	5.940490e-02
431           	8.749650e-02	6.302210e-02	1.505350e-02	6.059190e-02
432           	8.918760e-02	6.081000e-02	1.482190e-02	5.986800e-02
433           	8.884590e-02	6.054210e-02	1.488930e-02	6.023060e-02
434           	8.614570e-02	6.261810e-02	1.521800e-02	6.158780e-02
435           	8.243370e-02	6.544020e-02	1.540900e-02	6.268990e-02
436           	7.965210e-02	6.729430e-02	1.526250e-02	6.142480e-02
437           	7.897850e-02	6.890440e-02	1.521490e-02	5.944710e-02
438           	8.297970e-02	7.179880e-02	1.588740e-02	5.906510e-02
439           	8.830440e-02	7.508850e-02	1.680540e-02	6.093270e-02
440           	9.348440e-02	7.740760e-02	1.762940e-02	6.430000e-02
441           	9.569540e-02	7.927770e-02	1.833310e-02	6.840040e-02
442           	9.587240e-02	7.759630e-02	1.813540e-02	7.035290e-02
443           	9.468160e-02	7.234390e-02	1.712220e-02	6.873930e-02
444           	9.350650e-02	6.766600e-02	1.641690e-02	6.549990e-02
445           	9.085360e-02	6.554690e-02	1.627450e-02	6.344430e-02
446           	8.699960e-02	6.731230e-02	1.619220e-02	6.282050e-02