# Residuals   
# Time        	p             	Ux            	Uy            	Uz            
1.19904e-05   	1.000000e+00	2.655180e-01	1.000000e+00	1.540810e-01
2.63616e-05   	7.105260e-03	3.234500e-01	9.254250e-01	6.570450e-02
4.35873e-05   	9.700940e-01	1.849890e-03	1.798050e-04	2.353820e-04
6.42437e-05   	9.987710e-01	6.205710e-05	2.521150e-06	8.685780e-06
8.90212e-05   	9.987700e-01	6.187210e-05	2.630380e-06	8.674540e-06
0.000118695   	9.987670e-01	6.182590e-05	2.760940e-06	8.679630e-06
0.000154239   	9.987600e-01	6.211050e-05	2.923670e-06	8.734610e-06
0.000196861   	9.987480e-01	6.272630e-05	3.123660e-06	8.840070e-06
0.000247919   	9.987350e-01	6.356240e-05	3.359910e-06	8.982420e-06
0.00030887    	9.987200e-01	6.470490e-05	3.634970e-06	9.173900e-06
0.000381736   	9.986940e-01	6.674320e-05	3.979500e-06	9.497770e-06
0.000469174   	9.986560e-01	6.971700e-05	4.408340e-06	9.966450e-06
0.000573909   	9.986170e-01	7.328180e-05	4.910990e-06	1.054410e-05
0.00069959    	9.985620e-01	7.836800e-05	5.534900e-06	1.135080e-05
0.000849596   	9.985050e-01	8.454730e-05	6.262310e-06	1.232760e-05
0.00102902    	9.983840e-01	9.303510e-05	7.183080e-06	1.365710e-05
0.00124261    	9.981940e-01	1.033820e-04	8.269170e-06	1.526740e-05
0.00149282    	9.979990e-01	1.149300e-04	9.430410e-06	1.706580e-05
0.00178617    	9.977630e-01	1.299020e-04	1.082110e-05	1.938870e-05
0.00212842    	9.975020e-01	1.474360e-04	1.238370e-05	2.210350e-05
0.002522      	9.972400e-01	1.661550e-04	1.398740e-05	2.500590e-05
0.00298937    	9.968390e-01	1.943080e-04	1.632440e-05	2.934240e-05
0.00352865    	9.964910e-01	2.211380e-04	1.848930e-05	3.350910e-05
0.00417578    	9.959330e-01	2.620310e-04	2.177010e-05	3.985560e-05
0.00490381    	9.955910e-01	2.910610e-04	2.398370e-05	4.447040e-05
0.00575318    	9.950190e-01	3.347970e-04	2.737740e-05	5.138550e-05
0.00660254    	9.951800e-01	3.299510e-04	2.673990e-05	5.089680e-05
0.00745191    	9.952900e-01	3.242630e-04	2.614400e-05	5.022830e-05
0.00830127    	9.953920e-01	3.189790e-04	2.559420e-05	4.960530e-05
0.00915064    	9.954870e-01	3.140590e-04	2.508510e-05	4.902220e-05
0.01          	9.955740e-01	3.094670e-04	2.461200e-05	4.847580e-05
0.011         	9.948960e-01	3.592620e-04	2.845740e-05	5.646780e-05
0.012125      	9.944250e-01	3.993250e-04	3.138740e-05	6.303030e-05
0.0134375     	9.936760e-01	4.594390e-04	3.586020e-05	7.283480e-05
0.01475       	9.938450e-01	4.528750e-04	3.505700e-05	7.212620e-05
0.0160625     	9.939750e-01	4.451800e-04	3.429930e-05	7.118280e-05
0.017375      	9.940930e-01	4.380710e-04	3.360110e-05	7.030770e-05
0.0186875     	9.942000e-01	4.314860e-04	3.295490e-05	6.949320e-05
0.02          	9.942990e-01	4.253640e-04	3.235450e-05	6.873280e-05
0.0214286     	9.939030e-01	4.567260e-04	3.460610e-05	7.403530e-05
0.0231429     	9.928400e-01	5.413820e-04	4.079680e-05	8.807270e-05
0.0248571     	9.929870e-01	5.350560e-04	4.000100e-05	8.739180e-05
0.0265714     	9.931040e-01	5.271470e-04	3.923940e-05	8.639800e-05
0.0282857     	9.932110e-01	5.197960e-04	3.853150e-05	8.547250e-05
0.03          	9.933090e-01	5.129380e-04	3.787110e-05	8.460810e-05
0.032         	9.923250e-01	5.908380e-04	4.346080e-05	9.776030e-05
0.034         	9.924480e-01	5.845080e-04	4.269840e-05	9.705190e-05
0.036         	9.925530e-01	5.768760e-04	4.196640e-05	9.607970e-05
0.038         	9.926500e-01	5.697360e-04	4.128080e-05	9.516860e-05
0.04          	9.927410e-01	5.630350e-04	4.063670e-05	9.431170e-05
0.042         	9.928250e-01	5.567260e-04	4.002970e-05	9.350400e-05
0.044         	9.929040e-01	5.507720e-04	3.945630e-05	9.273980e-05
0.046         	9.929790e-01	5.451330e-04	3.891340e-05	9.201520e-05
0.048         	9.930500e-01	5.397870e-04	3.839790e-05	9.132610e-05
0.05          	9.931160e-01	5.347000e-04	3.790760e-05	9.067020e-05
0.052         	9.931800e-01	5.298520e-04	3.744030e-05	9.004530e-05
0.054         	9.932410e-01	5.252210e-04	3.699400e-05	8.944800e-05
0.056         	9.933000e-01	5.207970e-04	3.656710e-05	8.887670e-05
0.058         	9.933560e-01	5.165580e-04	3.615800e-05	8.832840e-05
0.06          	9.934090e-01	5.124900e-04	3.576560e-05	8.780110e-05
0.062         	9.934610e-01	5.085780e-04	3.538840e-05	8.729310e-05
0.064         	9.935100e-01	5.048110e-04	3.502560e-05	8.680330e-05
0.066         	9.935570e-01	5.011800e-04	3.467580e-05	8.633000e-05
0.068         	9.936020e-01	4.976740e-04	3.433880e-05	8.587210e-05
0.07          	9.936460e-01	4.942860e-04	3.401350e-05	8.542840e-05
0.072         	9.936880e-01	4.910080e-04	3.369910e-05	8.499810e-05
0.074         	9.937290e-01	4.878340e-04	3.339500e-05	8.458060e-05
0.076         	9.937340e-01	4.847560e-04	3.310060e-05	8.417470e-05
0.078         	9.937380e-01	4.817670e-04	3.281530e-05	8.377990e-05
0.08          	9.937420e-01	4.788630e-04	3.253860e-05	8.339540e-05
0.082         	9.937450e-01	4.760380e-04	3.227010e-05	8.302020e-05
0.084         	9.937490e-01	4.732900e-04	3.200930e-05	8.265400e-05
0.086         	9.937530e-01	4.706120e-04	3.175580e-05	8.229630e-05
0.088         	9.937560e-01	4.680010e-04	3.150920e-05	8.194670e-05
0.09          	9.937600e-01	4.654550e-04	3.126920e-05	8.160440e-05
0.092         	9.937630e-01	4.629710e-04	3.103550e-05	8.126910e-05
0.094         	9.937670e-01	4.605460e-04	3.080770e-05	8.094030e-05
0.096         	9.937700e-01	4.581750e-04	3.058560e-05	8.061780e-05
0.098         	9.937730e-01	4.558560e-04	3.036900e-05	8.030120e-05
0.1           	9.937760e-01	4.535870e-04	3.015760e-05	7.999010e-05
0.102         	9.937790e-01	4.513650e-04	2.995110e-05	7.968440e-05
0.104         	9.937820e-01	4.491890e-04	2.974940e-05	7.938390e-05
0.106         	9.937850e-01	4.470560e-04	2.955230e-05	7.908850e-05
0.108         	9.937870e-01	4.449650e-04	2.935960e-05	7.879760e-05
0.11          	9.937900e-01	4.429120e-04	2.917100e-05	7.851110e-05
0.112         	9.937920e-01	4.408970e-04	2.898640e-05	7.822900e-05
0.114         	9.937950e-01	4.389180e-04	2.880570e-05	7.795100e-05
0.116         	9.937980e-01	4.369740e-04	2.862870e-05	7.767710e-05
0.118         	9.938000e-01	4.350630e-04	2.845530e-05	7.740690e-05
0.12          	9.938030e-01	4.331850e-04	2.828530e-05	7.714040e-05
0.122         	9.938060e-01	4.313380e-04	2.811870e-05	7.687740e-05
0.124         	9.938080e-01	4.295210e-04	2.795530e-05	7.661750e-05
0.126         	9.938110e-01	4.277330e-04	2.779490e-05	7.636090e-05
0.128         	9.938130e-01	4.259720e-04	2.763750e-05	7.610740e-05
0.13          	9.938150e-01	4.242380e-04	2.748300e-05	7.585700e-05
0.132         	9.938170e-01	4.225290e-04	2.733120e-05	7.560950e-05
0.134         	9.938190e-01	4.208450e-04	2.718220e-05	7.536480e-05
0.136         	9.938210e-01	4.191850e-04	2.703570e-05	7.512280e-05
0.138         	9.938220e-01	4.175490e-04	2.689180e-05	7.488330e-05
0.14          	9.938240e-01	4.159360e-04	2.675020e-05	7.464630e-05
0.142         	9.938260e-01	4.143440e-04	2.661110e-05	7.441190e-05
0.144         	9.938280e-01	4.127730e-04	2.647420e-05	7.418000e-05
0.146         	9.938300e-01	4.112230e-04	2.633960e-05	7.395040e-05
0.148         	9.938310e-01	4.096920e-04	2.620710e-05	7.372330e-05
0.15          	9.938330e-01	4.081810e-04	2.607670e-05	7.349840e-05
0.152         	9.938350e-01	4.066890e-04	2.594830e-05	7.327560e-05
0.154         	9.938370e-01	4.052150e-04	2.582190e-05	7.305490e-05
0.156         	9.938390e-01	4.037580e-04	2.569740e-05	7.283640e-05
0.158         	9.938410e-01	4.023190e-04	2.557480e-05	7.261980e-05
0.16          	9.938430e-01	4.008960e-04	2.545390e-05	7.240540e-05
0.162         	9.938440e-01	3.994900e-04	2.533480e-05	7.219290e-05
0.164         	9.938460e-01	3.981000e-04	2.521750e-05	7.198240e-05
0.166         	9.938480e-01	3.967250e-04	2.510180e-05	7.177360e-05
0.168         	9.938490e-01	3.953660e-04	2.498770e-05	7.156660e-05
0.17          	9.938510e-01	3.940220e-04	2.487510e-05	7.136130e-05
0.172         	9.938530e-01	3.926920e-04	2.476420e-05	7.115750e-05
0.174         	9.938550e-01	3.913770e-04	2.465470e-05	7.095540e-05
0.176         	9.938560e-01	3.900760e-04	2.454660e-05	7.075500e-05
0.178         	9.938580e-01	3.887870e-04	2.444000e-05	7.055610e-05
0.18          	9.938600e-01	3.875120e-04	2.433480e-05	7.035880e-05
0.182         	9.938610e-01	3.862500e-04	2.423100e-05	7.016300e-05
0.184         	9.938630e-01	3.850010e-04	2.412850e-05	6.996870e-05
0.186         	9.938640e-01	3.837640e-04	2.402720e-05	6.977580e-05
0.188         	9.938660e-01	3.825400e-04	2.392730e-05	6.958430e-05
0.19          	9.938680e-01	3.813270e-04	2.382860e-05	6.939430e-05
0.192         	9.938690e-01	3.801270e-04	2.373100e-05	6.920570e-05
0.194         	9.938700e-01	3.789370e-04	2.363470e-05	6.901850e-05
0.196         	9.938720e-01	3.777590e-04	2.353950e-05	6.883270e-05
0.198         	9.938730e-01	3.765930e-04	2.344550e-05	6.864820e-05
0.2           	9.938740e-01	3.754360e-04	2.335250e-05	6.846510e-05
0.202         	9.938760e-01	3.742910e-04	2.326060e-05	6.828340e-05
0.204         	9.938770e-01	3.731560e-04	2.316980e-05	6.810300e-05
0.206         	9.938790e-01	3.720310e-04	2.308010e-05	6.792390e-05
0.208         	9.938800e-01	3.709160e-04	2.299130e-05	6.774610e-05
0.21          	9.938820e-01	3.698110e-04	2.290350e-05	6.756950e-05
0.212         	9.938830e-01	3.687160e-04	2.281670e-05	6.739420e-05
0.214         	9.938850e-01	3.676300e-04	2.273090e-05	6.722010e-05
0.216         	9.938870e-01	3.665540e-04	2.264600e-05	6.704720e-05
0.218         	9.938880e-01	3.654860e-04	2.256200e-05	6.687540e-05
0.22          	9.938900e-01	3.644270e-04	2.247890e-05	6.670490e-05
0.222         	9.938910e-01	3.633770e-04	2.239670e-05	6.653540e-05
0.224         	9.938930e-01	3.623350e-04	2.231540e-05	6.636710e-05
0.226         	9.938940e-01	3.613020e-04	2.223490e-05	6.619980e-05
0.228         	9.938960e-01	3.602780e-04	2.215520e-05	6.603370e-05
0.23          	9.938970e-01	3.592630e-04	2.207640e-05	6.586870e-05
0.232         	9.938990e-01	3.582560e-04	2.199830e-05	6.570470e-05
0.234         	9.939000e-01	3.572570e-04	2.192110e-05	6.554170e-05
0.236         	9.939020e-01	3.562660e-04	2.184460e-05	6.537980e-05
0.238         	9.939040e-01	3.552840e-04	2.176880e-05	6.521880e-05
0.24          	9.939050e-01	3.543090e-04	2.169380e-05	6.505880e-05
0.242         	9.939070e-01	3.533420e-04	2.161960e-05	6.489980e-05
0.244         	9.939080e-01	3.523830e-04	2.154600e-05	6.474170e-05
0.246         	9.939090e-01	3.514320e-04	2.147320e-05	6.458460e-05
0.248         	9.939110e-01	3.504880e-04	2.140110e-05	6.442850e-05
0.25          	9.939120e-01	3.495520e-04	2.132960e-05	6.427330e-05
0.252         	9.939140e-01	3.486220e-04	2.125880e-05	6.411900e-05
0.254         	9.939150e-01	3.477000e-04	2.118870e-05	6.396560e-05
0.256         	9.939170e-01	3.467850e-04	2.111920e-05	6.381310e-05
0.258         	9.939180e-01	3.458770e-04	2.105030e-05	6.366150e-05
0.26          	9.939200e-01	3.449760e-04	2.098210e-05	6.351070e-05
0.262         	9.939210e-01	3.440810e-04	2.091440e-05	6.336080e-05
0.264         	9.939230e-01	3.431920e-04	2.084740e-05	6.321180e-05
0.266         	9.939240e-01	3.423100e-04	2.078100e-05	6.306340e-05
0.268         	9.939260e-01	3.414330e-04	2.071510e-05	6.291590e-05
0.27          	9.939270e-01	3.405640e-04	2.064990e-05	6.276920e-05
0.272         	9.939280e-01	3.397000e-04	2.058520e-05	6.262330e-05
0.274         	9.939300e-01	3.388420e-04	2.052100e-05	6.247810e-05
0.276         	9.939310e-01	3.379900e-04	2.045740e-05	6.233360e-05
0.278         	9.939310e-01	3.371380e-04	2.039400e-05	6.218960e-05
0.28          	9.939340e-01	3.363040e-04	2.033180e-05	6.204690e-05
0.282         	9.939350e-01	3.354700e-04	2.026980e-05	6.190470e-05
0.284         	9.939370e-01	3.346410e-04	2.020830e-05	6.176330e-05
0.286         	9.939380e-01	3.338170e-04	2.014740e-05	6.162260e-05
0.288         	9.939390e-01	3.330000e-04	2.008690e-05	6.148250e-05
0.29          	9.939410e-01	3.321870e-04	2.002690e-05	6.134310e-05
0.292         	9.939420e-01	3.313810e-04	1.996740e-05	6.120430e-05
0.294         	9.939430e-01	3.305790e-04	1.990840e-05	6.106620e-05
0.296         	9.939450e-01	3.297820e-04	1.984980e-05	6.092880e-05
0.298         	9.939460e-01	3.289910e-04	1.979170e-05	6.079190e-05
0.3           	9.939470e-01	3.282040e-04	1.973410e-05	6.065570e-05
0.302         	9.939480e-01	3.274230e-04	1.967690e-05	6.052010e-05
0.304         	9.939500e-01	3.266460e-04	1.962010e-05	6.038500e-05
0.306         	9.939510e-01	3.258730e-04	1.956380e-05	6.025060e-05
0.308         	9.939520e-01	3.251050e-04	1.950800e-05	6.011670e-05
0.31          	9.939530e-01	3.243410e-04	1.945250e-05	5.998350e-05
0.312         	9.939540e-01	3.235810e-04	1.939750e-05	5.985080e-05
0.314         	9.939550e-01	3.228260e-04	1.934290e-05	5.971870e-05
0.316         	9.939570e-01	3.220750e-04	1.928870e-05	5.958720e-05
0.318         	9.939580e-01	3.213290e-04	1.923490e-05	5.945620e-05
0.32          	9.939590e-01	3.205870e-04	1.918150e-05	5.932570e-05
0.322         	9.939600e-01	3.198490e-04	1.912840e-05	5.919590e-05
0.324         	9.939620e-01	3.191160e-04	1.907580e-05	5.906660e-05
0.326         	9.939630e-01	3.183860e-04	1.902360e-05	5.893790e-05
0.328         	9.939640e-01	3.176610e-04	1.897170e-05	5.880970e-05
0.33          	9.939650e-01	3.169390e-04	1.892000e-05	5.868240e-05
0.332         	9.939670e-01	3.162200e-04	1.886910e-05	5.855460e-05
0.334         	9.939680e-01	3.155060e-04	1.881830e-05	5.842790e-05
0.336         	9.939690e-01	3.147950e-04	1.876790e-05	5.830160e-05
0.338         	9.939700e-01	3.140860e-04	1.871790e-05	5.817560e-05
0.34          	9.939710e-01	3.133840e-04	1.866810e-05	5.805010e-05
0.342         	9.939720e-01	3.126920e-04	1.861870e-05	5.792520e-05
0.344         	9.939730e-01	3.119990e-04	1.856970e-05	5.780070e-05
0.346         	9.939740e-01	3.113070e-04	1.852100e-05	5.767660e-05
0.348         	9.939750e-01	3.106190e-04	1.847260e-05	5.755300e-05
0.35          	9.939760e-01	3.099350e-04	1.842460e-05	5.742980e-05
0.352         	9.939760e-01	3.092550e-04	1.837690e-05	5.730710e-05
0.354         	9.939780e-01	3.085990e-04	1.832980e-05	5.718520e-05
0.356         	9.939780e-01	3.079050e-04	1.828250e-05	5.706290e-05
0.358         	9.939790e-01	3.072350e-04	1.823570e-05	5.694150e-05
0.36          	9.939800e-01	3.065680e-04	1.818930e-05	5.682060e-05
0.362         	9.939810e-01	3.059040e-04	1.814320e-05	5.670000e-05
0.364         	9.939820e-01	3.052430e-04	1.809730e-05	5.657990e-05
0.366         	9.939830e-01	3.045860e-04	1.805180e-05	5.646020e-05
0.368         	9.939830e-01	3.039310e-04	1.800650e-05	5.634090e-05
0.37          	9.939840e-01	3.032790e-04	1.796160e-05	5.622200e-05
0.372         	9.939850e-01	3.026300e-04	1.791690e-05	5.610360e-05
0.374         	9.939860e-01	3.019840e-04	1.787250e-05	5.598560e-05
0.376         	9.939870e-01	3.013400e-04	1.782840e-05	5.586810e-05
0.378         	9.939880e-01	3.006990e-04	1.778450e-05	5.575090e-05
0.38          	9.939890e-01	3.000610e-04	1.774100e-05	5.563420e-05
0.382         	9.939890e-01	2.994260e-04	1.769770e-05	5.551780e-05
0.384         	9.939900e-01	2.987930e-04	1.765470e-05	5.540180e-05
0.386         	9.939910e-01	2.981630e-04	1.761190e-05	5.528610e-05
0.388         	9.939920e-01	2.975350e-04	1.756940e-05	5.517100e-05
0.39          	9.939930e-01	2.969100e-04	1.752720e-05	5.505630e-05
0.392         	9.939930e-01	2.962880e-04	1.748520e-05	5.494190e-05
0.394         	9.939940e-01	2.956690e-04	1.744340e-05	5.482800e-05
0.396         	9.939950e-01	2.950520e-04	1.740200e-05	5.471460e-05
0.398         	9.939960e-01	2.944370e-04	1.736070e-05	5.460150e-05
0.4           	9.939970e-01	2.938170e-04	1.732000e-05	5.448810e-05
0.402         	9.939970e-01	2.932170e-04	1.727900e-05	5.437630e-05
0.404         	9.939980e-01	2.926100e-04	1.723850e-05	5.426420e-05
0.406         	9.939980e-01	2.920050e-04	1.719820e-05	5.415230e-05
0.408         	9.939990e-01	2.914030e-04	1.715820e-05	5.404080e-05
0.41          	9.940000e-01	2.908040e-04	1.711840e-05	5.392970e-05
0.412         	9.940000e-01	2.902070e-04	1.707880e-05	5.381890e-05
0.414         	9.940010e-01	2.896130e-04	1.703950e-05	5.370850e-05
0.416         	9.940010e-01	2.890210e-04	1.700030e-05	5.359830e-05
0.418         	9.940010e-01	2.884310e-04	1.696140e-05	5.348850e-05
0.42          	9.940020e-01	2.878440e-04	1.692270e-05	5.337900e-05
0.422         	9.940020e-01	2.872590e-04	1.688430e-05	5.326980e-05
0.424         	9.940030e-01	2.866770e-04	1.684600e-05	5.316090e-05
0.426         	9.940030e-01	2.860970e-04	1.680800e-05	5.305230e-05
0.428         	9.940040e-01	2.855200e-04	1.677020e-05	5.294410e-05
0.43          	9.940040e-01	2.849440e-04	1.673260e-05	5.283620e-05
0.432         	9.940050e-01	2.843710e-04	1.669520e-05	5.272870e-05
0.434         	9.940050e-01	2.838000e-04	1.665800e-05	5.262140e-05
0.436         	9.940050e-01	2.832320e-04	1.662100e-05	5.251450e-05
0.438         	9.940060e-01	2.826650e-04	1.658420e-05	5.240800e-05
0.44          	9.940060e-01	2.821010e-04	1.654760e-05	5.230170e-05
0.442         	9.940070e-01	2.815390e-04	1.651120e-05	5.219570e-05
0.444         	9.940070e-01	2.809790e-04	1.647500e-05	5.209010e-05
0.446         	9.940080e-01	2.804210e-04	1.643890e-05	5.198470e-05
0.448         	9.940080e-01	2.798650e-04	1.640280e-05	5.187950e-05
0.45          	9.940080e-01	2.793110e-04	1.636670e-05	5.177470e-05
0.452         	9.940090e-01	2.787600e-04	1.633080e-05	5.167030e-05
0.454         	9.940090e-01	2.782110e-04	1.629510e-05	5.156620e-05
0.456         	9.940090e-01	2.776640e-04	1.625960e-05	5.146240e-05
0.458         	9.940090e-01	2.771200e-04	1.622430e-05	5.135890e-05
0.46          	9.940090e-01	2.765770e-04	1.618910e-05	5.125560e-05
0.462         	9.940100e-01	2.760360e-04	1.615420e-05	5.115270e-05
0.464         	9.940100e-01	2.754970e-04	1.611940e-05	5.105010e-05
0.466         	9.940100e-01	2.749600e-04	1.608480e-05	5.094780e-05
0.468         	9.940100e-01	2.744250e-04	1.605030e-05	5.084580e-05
0.47          	9.940110e-01	2.738920e-04	1.601610e-05	5.074410e-05
0.472         	9.940110e-01	2.733610e-04	1.598200e-05	5.064280e-05
0.474         	9.940110e-01	2.728320e-04	1.594810e-05	5.054170e-05
0.476         	9.940110e-01	2.723050e-04	1.591430e-05	5.044090e-05
0.478         	9.940110e-01	2.717790e-04	1.588070e-05	5.034040e-05
0.48          	9.940110e-01	2.712560e-04	1.584730e-05	5.024010e-05
0.482         	9.940110e-01	2.707350e-04	1.581410e-05	5.014020e-05
0.484         	9.940110e-01	2.702150e-04	1.578100e-05	5.004060e-05
0.486         	9.940110e-01	2.696970e-04	1.574810e-05	4.994120e-05
0.488         	9.940110e-01	2.691810e-04	1.571530e-05	4.984220e-05
0.49          	9.940110e-01	2.686660e-04	1.568270e-05	4.974340e-05
0.492         	9.940110e-01	2.681540e-04	1.565030e-05	4.964490e-05
0.494         	9.940120e-01	2.676430e-04	1.561800e-05	4.954670e-05
0.496         	9.940120e-01	2.671340e-04	1.558580e-05	4.944880e-05
0.498         	9.940120e-01	2.666270e-04	1.555390e-05	4.935110e-05
0.5           	9.940120e-01	2.661210e-04	1.552200e-05	4.925380e-05
0.502         	9.940120e-01	2.656180e-04	1.549030e-05	4.915670e-05
0.504         	9.940120e-01	2.651160e-04	1.545880e-05	4.905990e-05
0.506         	9.940120e-01	2.646160e-04	1.542740e-05	4.896340e-05
0.508         	9.940130e-01	2.641180e-04	1.539620e-05	4.886720e-05
0.51          	9.940130e-01	2.636210e-04	1.536510e-05	4.877130e-05
0.512         	9.940130e-01	2.631260e-04	1.533420e-05	4.867560e-05
0.514         	9.940130e-01	2.626320e-04	1.530340e-05	4.858020e-05
0.516         	9.940130e-01	2.621400e-04	1.527270e-05	4.848500e-05
0.518         	9.940130e-01	2.616500e-04	1.524220e-05	4.839010e-05
0.52          	9.940130e-01	2.611610e-04	1.521180e-05	4.829540e-05
0.522         	9.940130e-01	2.606740e-04	1.518160e-05	4.820100e-05
0.524         	9.940140e-01	2.601880e-04	1.515150e-05	4.810690e-05
0.526         	9.940140e-01	2.597040e-04	1.512160e-05	4.801310e-05
0.528         	9.940140e-01	2.592220e-04	1.509170e-05	4.791950e-05
0.53          	9.940140e-01	2.587410e-04	1.506200e-05	4.782620e-05
0.532         	9.940140e-01	2.582620e-04	1.503250e-05	4.773330e-05
0.534         	9.940140e-01	2.577840e-04	1.500310e-05	4.764050e-05
0.536         	9.940140e-01	2.573090e-04	1.497380e-05	4.754810e-05
0.538         	9.940140e-01	2.568350e-04	1.494460e-05	4.745580e-05
0.54          	9.940150e-01	2.563620e-04	1.491560e-05	4.736390e-05
0.542         	9.940150e-01	2.558910e-04	1.488670e-05	4.727220e-05
0.544         	9.940150e-01	2.554210e-04	1.485790e-05	4.718070e-05
0.546         	9.940150e-01	2.549530e-04	1.482930e-05	4.708950e-05
0.548         	9.940150e-01	2.544860e-04	1.480070e-05	4.699850e-05
0.55          	9.940150e-01	2.540210e-04	1.477230e-05	4.690780e-05
0.552         	9.940150e-01	2.535570e-04	1.474410e-05	4.681740e-05
0.554         	9.940150e-01	2.530950e-04	1.471590e-05	4.672720e-05
0.556         	9.940150e-01	2.526340e-04	1.468790e-05	4.663730e-05
0.558         	9.940150e-01	2.521750e-04	1.465990e-05	4.654770e-05
0.56          	9.940150e-01	2.517170e-04	1.463210e-05	4.645830e-05
0.562         	9.940150e-01	2.512600e-04	1.460450e-05	4.636910e-05
0.564         	9.940150e-01	2.508050e-04	1.457690e-05	4.628020e-05
0.566         	9.940150e-01	2.503510e-04	1.454950e-05	4.619150e-05
0.568         	9.940150e-01	2.498980e-04	1.452210e-05	4.610310e-05
0.57          	9.940150e-01	2.494470e-04	1.449490e-05	4.601480e-05
0.572         	9.940150e-01	2.489980e-04	1.446780e-05	4.592690e-05
0.574         	9.940150e-01	2.485490e-04	1.444080e-05	4.583910e-05
0.576         	9.940150e-01	2.481020e-04	1.441390e-05	4.575170e-05
0.578         	9.940150e-01	2.476560e-04	1.438720e-05	4.566450e-05
0.58          	9.940150e-01	2.472120e-04	1.436050e-05	4.557750e-05
0.582         	9.940150e-01	2.467700e-04	1.433400e-05	4.549080e-05
0.584         	9.940150e-01	2.463280e-04	1.430750e-05	4.540430e-05
0.586         	9.940150e-01	2.458880e-04	1.428120e-05	4.531800e-05
0.588         	9.940150e-01	2.454490e-04	1.425500e-05	4.523190e-05
0.59          	9.940150e-01	2.450120e-04	1.422890e-05	4.514600e-05
0.592         	9.940150e-01	2.445760e-04	1.420290e-05	4.506040e-05
0.594         	9.940150e-01	2.441410e-04	1.417700e-05	4.497500e-05
0.596         	9.940150e-01	2.437080e-04	1.415120e-05	4.488980e-05
0.598         	9.940150e-01	2.432760e-04	1.412550e-05	4.480480e-05
0.6           	9.940150e-01	2.428450e-04	1.409990e-05	4.472010e-05
0.602         	9.940150e-01	2.424160e-04	1.407440e-05	4.463560e-05
0.604         	9.940150e-01	2.419880e-04	1.404900e-05	4.455130e-05
0.606         	9.940150e-01	2.415610e-04	1.402370e-05	4.446720e-05
0.608         	9.940150e-01	2.411360e-04	1.399850e-05	4.438330e-05
0.61          	9.940150e-01	2.407110e-04	1.397350e-05	4.429970e-05
0.612         	9.940150e-01	2.402890e-04	1.394850e-05	4.421630e-05
0.614         	9.940150e-01	2.398670e-04	1.392360e-05	4.413310e-05
0.616         	9.940150e-01	2.394470e-04	1.389880e-05	4.405000e-05
0.618         	9.940150e-01	2.390270e-04	1.387410e-05	4.396730e-05
0.62          	9.940150e-01	2.386090e-04	1.384950e-05	4.388470e-05
0.622         	9.940160e-01	2.381930e-04	1.382500e-05	4.380240e-05
0.624         	9.940160e-01	2.377780e-04	1.380060e-05	4.372030e-05
0.626         	9.940160e-01	2.373640e-04	1.377630e-05	4.363840e-05
0.628         	9.940160e-01	2.369510e-04	1.375200e-05	4.355680e-05
0.63          	9.940160e-01	2.365400e-04	1.372790e-05	4.347540e-05
0.632         	9.940160e-01	2.361300e-04	1.370390e-05	4.339420e-05
0.634         	9.940160e-01	2.357210e-04	1.367990e-05	4.331330e-05
0.636         	9.940160e-01	2.353130e-04	1.365610e-05	4.323260e-05
0.638         	9.940160e-01	2.349070e-04	1.363230e-05	4.315220e-05
0.64          	9.940160e-01	2.345020e-04	1.360870e-05	4.307190e-05
0.642         	9.940160e-01	2.340970e-04	1.358510e-05	4.299190e-05
0.644         	9.940160e-01	2.336950e-04	1.356160e-05	4.291220e-05
0.646         	9.940160e-01	2.332940e-04	1.353820e-05	4.283270e-05
0.648         	9.940160e-01	2.328940e-04	1.351490e-05	4.275350e-05
0.65          	9.940160e-01	2.324960e-04	1.349160e-05	4.267450e-05
0.652         	9.940160e-01	2.321000e-04	1.346850e-05	4.259580e-05
0.654         	9.940160e-01	2.317050e-04	1.344540e-05	4.251740e-05
0.656         	9.940160e-01	2.313110e-04	1.342240e-05	4.243920e-05
0.658         	9.940160e-01	2.309190e-04	1.339960e-05	4.236130e-05
0.66          	9.940160e-01	2.305280e-04	1.337670e-05	4.228360e-05
0.662         	9.940160e-01	2.301390e-04	1.335400e-05	4.220620e-05
0.664         	9.940160e-01	2.297510e-04	1.333140e-05	4.212900e-05
0.666         	9.940160e-01	2.293630e-04	1.330880e-05	4.205190e-05
0.668         	9.940160e-01	2.289780e-04	1.328630e-05	4.197520e-05
0.67          	9.940160e-01	2.285940e-04	1.326400e-05	4.189870e-05
0.672         	9.940160e-01	2.282100e-04	1.324160e-05	4.182230e-05
0.674         	9.940160e-01	2.278280e-04	1.321940e-05	4.174600e-05
0.676         	9.940160e-01	2.274460e-04	1.319730e-05	4.167000e-05
0.678         	9.940160e-01	2.270670e-04	1.317520e-05	4.159420e-05
0.68          	9.940160e-01	2.266880e-04	1.315320e-05	4.151870e-05
0.682         	9.940160e-01	2.263100e-04	1.313130e-05	4.144330e-05
0.684         	9.940160e-01	2.259340e-04	1.310940e-05	4.136810e-05
0.686         	9.940160e-01	2.255580e-04	1.308770e-05	4.129320e-05
0.688         	9.940160e-01	2.251840e-04	1.306600e-05	4.121840e-05
0.69          	9.940160e-01	2.248110e-04	1.304440e-05	4.114390e-05
0.692         	9.940160e-01	2.244390e-04	1.302290e-05	4.106950e-05
0.694         	9.940160e-01	2.240690e-04	1.300140e-05	4.099530e-05
0.696         	9.940160e-01	2.237000e-04	1.298000e-05	4.092130e-05
0.698         	9.940160e-01	2.233320e-04	1.295870e-05	4.084750e-05
0.7           	9.940160e-01	2.229650e-04	1.293750e-05	4.077400e-05
0.702         	9.940160e-01	2.226000e-04	1.291630e-05	4.070080e-05
0.704         	9.940160e-01	2.222360e-04	1.289520e-05	4.062770e-05
0.706         	9.940160e-01	2.218730e-04	1.287420e-05	4.055490e-05
0.708         	9.940160e-01	2.215120e-04	1.285330e-05	4.048230e-05
0.71          	9.940160e-01	2.211520e-04	1.283240e-05	4.041000e-05
0.712         	9.940160e-01	2.207930e-04	1.281160e-05	4.033790e-05
0.714         	9.940160e-01	2.204360e-04	1.279090e-05	4.026590e-05
0.716         	9.940160e-01	2.200790e-04	1.277020e-05	4.019420e-05
0.718         	9.940160e-01	2.197240e-04	1.274960e-05	4.012270e-05
0.72          	9.940170e-01	2.193700e-04	1.272910e-05	4.005150e-05
0.722         	9.940170e-01	2.190170e-04	1.270870e-05	3.998040e-05
0.724         	9.940170e-01	2.186660e-04	1.268830e-05	3.990970e-05
0.726         	9.940170e-01	2.183160e-04	1.266800e-05	3.983910e-05
0.728         	9.940170e-01	2.179670e-04	1.264780e-05	3.976870e-05
0.73          	9.940170e-01	2.176190e-04	1.262760e-05	3.969860e-05
0.732         	9.940170e-01	2.172730e-04	1.260750e-05	3.962860e-05
0.734         	9.940170e-01	2.169270e-04	1.258740e-05	3.955890e-05
0.736         	9.940170e-01	2.165830e-04	1.256750e-05	3.948930e-05
0.738         	9.940170e-01	2.162390e-04	1.254760e-05	3.941990e-05
0.74          	9.940170e-01	2.158970e-04	1.252770e-05	3.935060e-05
0.742         	9.940170e-01	2.155550e-04	1.250800e-05	3.928160e-05
0.744         	9.940170e-01	2.152140e-04	1.248830e-05	3.921280e-05
0.746         	9.940170e-01	2.148750e-04	1.246860e-05	3.914420e-05
0.748         	9.940170e-01	2.145360e-04	1.244900e-05	3.907570e-05
0.75          	9.940170e-01	2.141990e-04	1.242950e-05	3.900740e-05
0.752         	9.940170e-01	2.138620e-04	1.241010e-05	3.893930e-05
0.754         	9.940170e-01	2.135270e-04	1.239070e-05	3.887140e-05
0.756         	9.940170e-01	2.131920e-04	1.237140e-05	3.880370e-05
0.758         	9.940170e-01	2.128580e-04	1.235210e-05	3.873620e-05
0.76          	9.940170e-01	2.125260e-04	1.233290e-05	3.866890e-05
0.762         	9.940170e-01	2.121940e-04	1.231370e-05	3.860170e-05
0.764         	9.940170e-01	2.118620e-04	1.229470e-05	3.853440e-05
0.766         	9.940170e-01	2.115320e-04	1.227570e-05	3.846760e-05
0.768         	9.940170e-01	2.112040e-04	1.225670e-05	3.840090e-05
0.77          	9.940170e-01	2.108760e-04	1.223780e-05	3.833440e-05
0.772         	9.940170e-01	2.105490e-04	1.221900e-05	3.826810e-05
0.774         	9.940170e-01	2.102220e-04	1.220020e-05	3.820190e-05
0.776         	9.940170e-01	2.098970e-04	1.218150e-05	3.813590e-05
0.778         	9.940170e-01	2.095720e-04	1.216280e-05	3.807010e-05
0.78          	9.940170e-01	2.092480e-04	1.214420e-05	3.800440e-05
0.782         	9.940170e-01	2.089260e-04	1.212570e-05	3.793890e-05
0.784         	9.940170e-01	2.086040e-04	1.210720e-05	3.787350e-05
0.786         	9.940170e-01	2.082830e-04	1.208880e-05	3.780840e-05
0.788         	9.940170e-01	2.079630e-04	1.207040e-05	3.774330e-05
0.79          	9.940180e-01	2.076440e-04	1.205210e-05	3.767840e-05
0.792         	9.940180e-01	2.073260e-04	1.203390e-05	3.761370e-05
0.794         	9.940180e-01	2.070080e-04	1.201570e-05	3.754910e-05
0.796         	9.940180e-01	2.066910e-04	1.199750e-05	3.748470e-05
0.798         	9.940180e-01	2.063750e-04	1.197940e-05	3.742040e-05
0.8           	9.940180e-01	2.060600e-04	1.196140e-05	3.735630e-05
0.802         	9.940180e-01	2.057450e-04	1.194340e-05	3.729240e-05
0.804         	9.940180e-01	2.054310e-04	1.192550e-05	3.722860e-05
0.806         	9.940180e-01	2.051180e-04	1.190760e-05	3.716500e-05
0.808         	9.940180e-01	2.048050e-04	1.188980e-05	3.710150e-05
0.81          	9.940180e-01	2.044930e-04	1.187210e-05	3.703820e-05
0.812         	9.940180e-01	2.041830e-04	1.185440e-05	3.697500e-05
0.814         	9.940180e-01	2.038730e-04	1.183670e-05	3.691200e-05
0.816         	9.940180e-01	2.035630e-04	1.181910e-05	3.684910e-05
0.818         	9.940180e-01	2.032550e-04	1.180160e-05	3.678640e-05
0.82          	9.940180e-01	2.029470e-04	1.178410e-05	3.672390e-05
0.822         	9.940180e-01	2.026400e-04	1.176660e-05	3.666150e-05
0.824         	9.940180e-01	2.023340e-04	1.174920e-05	3.659920e-05
0.826         	9.940180e-01	2.020290e-04	1.173190e-05	3.653720e-05
0.828         	9.940180e-01	2.017240e-04	1.171460e-05	3.647520e-05
0.83          	9.940180e-01	2.014200e-04	1.169740e-05	3.641340e-05
0.832         	9.940180e-01	2.011170e-04	1.168020e-05	3.635180e-05