# Residuals   
# Time        	p             	Ux            	Uy            	Uz            
1             	1.000000e+00	2.189230e-01	1.000000e+00	1.645970e-01
2             	1.047340e-01	5.744490e-01	2.982220e-01	6.005150e-01
3             	3.170080e-02	4.300800e-01	1.464610e-01	4.518510e-01
4             	4.726860e-02	2.979780e-01	9.295970e-02	2.995900e-01
5             	1.326540e-01	2.591510e-01	7.118400e-02	2.478330e-01
6             	1.420750e-01	2.210620e-01	5.619300e-02	1.995150e-01
7             	1.114830e-01	1.788120e-01	4.706070e-02	1.612220e-01
8             	1.184630e-01	1.413160e-01	4.007770e-02	1.381970e-01
9             	6.573020e-02	1.119840e-01	3.242500e-02	1.124520e-01
10            	5.044040e-02	9.671760e-02	2.583390e-02	9.075550e-02
11            	4.093800e-02	8.402610e-02	2.155720e-02	7.782700e-02
12            	3.734100e-02	7.343170e-02	1.852380e-02	6.792640e-02
13            	3.580160e-02	6.414050e-02	1.650490e-02	5.882690e-02
14            	3.606390e-02	5.683550e-02	1.507860e-02	5.216190e-02
15            	3.677410e-02	5.068550e-02	1.396610e-02	4.733350e-02
16            	3.775200e-02	4.570430e-02	1.275280e-02	4.236220e-02
17            	3.870590e-02	4.118240e-02	1.152480e-02	3.799430e-02
18            	3.924990e-02	3.687420e-02	1.045410e-02	3.475890e-02
19            	4.007840e-02	3.285120e-02	9.501840e-03	3.187490e-02
20            	4.109780e-02	2.962210e-02	8.560900e-03	2.899710e-02
21            	4.277250e-02	2.720660e-02	7.705220e-03	2.655080e-02
22            	4.535600e-02	2.529190e-02	7.009110e-03	2.463410e-02
23            	4.841560e-02	2.358170e-02	6.470190e-03	2.312530e-02
24            	5.205550e-02	2.212150e-02	6.069040e-03	2.184020e-02
25            	4.737810e-02	2.084130e-02	5.777460e-03	2.083930e-02
26            	4.224690e-02	1.968090e-02	5.546290e-03	1.993020e-02
27            	3.860670e-02	1.864590e-02	5.312090e-03	1.907330e-02
28            	3.680070e-02	1.747180e-02	4.991090e-03	1.806160e-02
29            	3.477050e-02	1.648300e-02	4.783510e-03	1.740370e-02
30            	3.284420e-02	1.558570e-02	4.579870e-03	1.672940e-02
31            	3.116450e-02	1.477080e-02	4.413660e-03	1.607810e-02
32            	2.964750e-02	1.405330e-02	4.293710e-03	1.550150e-02
33            	2.860910e-02	1.347440e-02	4.208340e-03	1.497920e-02
34            	2.787430e-02	1.309480e-02	4.156950e-03	1.463020e-02
35            	2.737760e-02	1.288480e-02	4.126650e-03	1.449110e-02
36            	2.693540e-02	1.280580e-02	4.089220e-03	1.441600e-02
37            	2.644710e-02	1.285450e-02	4.069340e-03	1.434830e-02
38            	2.591960e-02	1.291050e-02	4.029770e-03	1.419610e-02
39            	2.529050e-02	1.292080e-02	3.990670e-03	1.395800e-02
40            	2.482310e-02	1.292000e-02	3.942580e-03	1.366070e-02
41            	2.444530e-02	1.290780e-02	3.880340e-03	1.333620e-02
42            	2.430770e-02	1.282460e-02	3.788170e-03	1.300020e-02
43            	2.411800e-02	1.265890e-02	3.679730e-03	1.269970e-02
44            	2.375980e-02	1.241710e-02	3.551480e-03	1.234520e-02
45            	2.331880e-02	1.213330e-02	3.423160e-03	1.203100e-02
46            	2.283280e-02	1.178080e-02	3.290240e-03	1.171660e-02
47            	2.225590e-02	1.144460e-02	3.170800e-03	1.151580e-02
48            	2.150640e-02	1.098910e-02	3.052990e-03	1.122980e-02
49            	2.052300e-02	1.066950e-02	2.956750e-03	1.098710e-02
50            	1.947150e-02	1.040670e-02	2.880490e-03	1.072570e-02
51            	1.850390e-02	1.024770e-02	2.834010e-03	1.054370e-02
52            	1.764770e-02	1.013310e-02	2.797560e-03	1.038270e-02
53            	1.690970e-02	1.001300e-02	2.756900e-03	1.018090e-02
54            	1.632140e-02	9.884790e-03	2.725710e-03	9.967590e-03
55            	1.595690e-02	9.845680e-03	2.706710e-03	9.763350e-03
56            	1.587460e-02	9.886020e-03	2.717070e-03	9.654050e-03
57            	1.603820e-02	1.001170e-02	2.738960e-03	9.646050e-03
58            	1.620100e-02	1.016130e-02	2.779020e-03	9.793280e-03
59            	1.636810e-02	1.054430e-02	2.855160e-03	1.010680e-02
60            	1.635630e-02	1.097850e-02	2.950160e-03	1.014210e-02
61            	1.612240e-02	1.151450e-02	3.033080e-03	1.013600e-02
62            	1.568120e-02	1.181010e-02	3.054380e-03	9.918850e-03
63            	1.521620e-02	1.197530e-02	3.034700e-03	9.756110e-03
64            	1.530790e-02	1.202250e-02	3.021850e-03	9.611940e-03
65            	1.622870e-02	1.202920e-02	3.012510e-03	9.623240e-03
66            	1.763510e-02	1.220800e-02	3.007560e-03	9.794440e-03
67            	1.888560e-02	1.265540e-02	3.074530e-03	1.035020e-02
68            	1.948010e-02	1.352890e-02	3.211400e-03	1.124100e-02
69            	1.965290e-02	1.447530e-02	3.392610e-03	1.202440e-02
70            	1.961400e-02	1.546160e-02	3.577470e-03	1.263780e-02
71            	1.934720e-02	1.630770e-02	3.786600e-03	1.313910e-02
72            	1.917200e-02	1.717410e-02	3.994560e-03	1.365130e-02
73            	1.911990e-02	1.796890e-02	4.218430e-03	1.414630e-02
74            	1.983490e-02	1.868700e-02	4.369470e-03	1.470120e-02
75            	2.154050e-02	1.942030e-02	4.494770e-03	1.530040e-02
76            	2.374850e-02	2.001410e-02	4.653890e-03	1.593510e-02
77            	2.627410e-02	2.065900e-02	4.861360e-03	1.658200e-02
78            	2.758450e-02	2.082820e-02	5.047440e-03	1.725660e-02
79            	2.813720e-02	2.148790e-02	5.313520e-03	1.839540e-02
80            	2.905540e-02	2.277870e-02	5.536860e-03	1.967240e-02
81            	3.011210e-02	2.402330e-02	5.796600e-03	2.049120e-02
82            	3.010570e-02	2.483670e-02	5.934190e-03	2.051880e-02
83            	2.888400e-02	2.517990e-02	5.961270e-03	1.985330e-02
84            	2.796620e-02	2.463790e-02	5.955870e-03	1.907630e-02
85            	2.858000e-02	2.397040e-02	5.846350e-03	1.834230e-02
86            	2.973760e-02	2.315020e-02	5.697030e-03	1.772560e-02
87            	3.082470e-02	2.260970e-02	5.606230e-03	1.739470e-02
88            	3.118850e-02	2.263260e-02	5.588330e-03	1.770020e-02
89            	3.172710e-02	2.317340e-02	5.617580e-03	1.880450e-02
90            	3.209710e-02	2.370870e-02	5.650300e-03	1.979770e-02
91            	3.210230e-02	2.399610e-02	5.657740e-03	2.027330e-02
92            	3.134200e-02	2.461970e-02	5.728130e-03	2.073350e-02
93            	3.045380e-02	2.517970e-02	5.799910e-03	2.093560e-02
94            	2.982440e-02	2.567580e-02	5.964590e-03	2.116580e-02
95            	2.966440e-02	2.624450e-02	6.121700e-03	2.157910e-02
96            	2.962280e-02	2.669190e-02	6.280110e-03	2.188180e-02
97            	3.064310e-02	2.691020e-02	6.370230e-03	2.199760e-02
98            	3.246130e-02	2.716090e-02	6.468490e-03	2.225230e-02
99            	3.402110e-02	2.746000e-02	6.557160e-03	2.280040e-02
100           	3.529610e-02	2.800600e-02	6.785630e-03	2.348560e-02
101           	3.582040e-02	2.839340e-02	7.013830e-03	2.434710e-02
102           	3.610080e-02	2.932810e-02	7.267790e-03	2.553310e-02
103           	3.666890e-02	3.053250e-02	7.458550e-03	2.659820e-02
104           	3.646790e-02	3.063310e-02	7.464320e-03	2.651280e-02
105           	3.534620e-02	3.003650e-02	7.255310e-03	2.511270e-02
106           	3.505750e-02	2.901750e-02	6.999020e-03	2.315050e-02
107           	3.494990e-02	2.748410e-02	6.764150e-03	2.150490e-02
108           	3.517160e-02	2.611390e-02	6.409990e-03	2.019060e-02
109           	3.551460e-02	2.464180e-02	6.115480e-03	1.928940e-02
110           	3.529880e-02	2.399210e-02	5.866010e-03	1.892210e-02
111           	3.508590e-02	2.407840e-02	5.669470e-03	1.937660e-02
112           	3.483760e-02	2.416900e-02	5.519380e-03	1.984520e-02
113           	3.523640e-02	2.367530e-02	5.385320e-03	2.017470e-02
114           	3.455830e-02	2.288350e-02	5.188790e-03	1.994090e-02
115           	3.351940e-02	2.234570e-02	5.078130e-03	1.944840e-02
116           	3.191400e-02	2.231200e-02	5.066200e-03	1.937840e-02
117           	3.005210e-02	2.228780e-02	5.046030e-03	1.913800e-02
118           	2.839720e-02	2.241450e-02	5.065440e-03	1.896460e-02
119           	2.737250e-02	2.235960e-02	5.118110e-03	1.878060e-02
120           	2.743800e-02	2.222140e-02	5.134160e-03	1.852400e-02
121           	2.750500e-02	2.191200e-02	5.155100e-03	1.824290e-02
122           	2.826430e-02	2.212400e-02	5.233770e-03	1.831680e-02
123           	2.940690e-02	2.213570e-02	5.361670e-03	1.853270e-02
124           	3.008480e-02	2.251560e-02	5.567660e-03	1.933830e-02
125           	3.082410e-02	2.331150e-02	5.745310e-03	2.021720e-02
126           	3.104900e-02	2.438230e-02	5.874680e-03	2.112530e-02
127           	3.044400e-02	2.483650e-02	5.890350e-03	2.092680e-02
128           	2.922240e-02	2.499930e-02	5.889850e-03	2.014840e-02
129           	2.843750e-02	2.466090e-02	5.863020e-03	1.905960e-02
130           	2.891220e-02	2.395940e-02	5.869310e-03	1.836510e-02
131           	3.000270e-02	2.343960e-02	5.769760e-03	1.772380e-02
132           	3.113020e-02	2.279560e-02	5.640410e-03	1.727520e-02
133           	3.120730e-02	2.266380e-02	5.565370e-03	1.750700e-02
134           	3.172570e-02	2.298110e-02	5.539990e-03	1.839510e-02
135           	3.221400e-02	2.334220e-02	5.598320e-03	1.946880e-02
136           	3.236430e-02	2.356370e-02	5.611580e-03	2.004480e-02
137           	3.176590e-02	2.398620e-02	5.662470e-03	2.039940e-02
138           	3.093810e-02	2.457890e-02	5.734340e-03	2.057270e-02
139           	2.994930e-02	2.516740e-02	5.827380e-03	2.070930e-02
140           	2.921690e-02	2.576290e-02	6.005260e-03	2.109210e-02
141           	2.903620e-02	2.601380e-02	6.204390e-03	2.152130e-02
142           	2.975700e-02	2.630380e-02	6.313380e-03	2.171650e-02
143           	3.139800e-02	2.646910e-02	6.384480e-03	2.196040e-02
144           	3.339570e-02	2.696840e-02	6.520570e-03	2.260610e-02
145           	3.497790e-02	2.740750e-02	6.688480e-03	2.332510e-02
146           	3.593640e-02	2.778120e-02	6.929790e-03	2.379720e-02
147           	3.577160e-02	2.877970e-02	7.283410e-03	2.518680e-02
148           	3.620860e-02	3.016210e-02	7.552190e-03	2.644720e-02
149           	3.635860e-02	3.088790e-02	7.620260e-03	2.716980e-02
150           	3.536520e-02	3.082750e-02	7.463570e-03	2.620720e-02
151           	3.408360e-02	2.996590e-02	7.173460e-03	2.440050e-02
152           	3.423990e-02	2.844780e-02	6.975860e-03	2.256240e-02
153           	3.514420e-02	2.687670e-02	6.698750e-03	2.097140e-02
154           	3.620600e-02	2.549740e-02	6.379710e-03	1.995220e-02
155           	3.680060e-02	2.449240e-02	6.147170e-03	1.942370e-02
156           	3.643710e-02	2.449880e-02	5.929580e-03	1.952550e-02
157           	3.542490e-02	2.471170e-02	5.767480e-03	2.005460e-02
158           	3.520890e-02	2.433590e-02	5.543780e-03	2.059630e-02
159           	3.468290e-02	2.340780e-02	5.294360e-03	2.054740e-02
160           	3.368620e-02	2.250720e-02	5.113690e-03	1.992170e-02
161           	3.228020e-02	2.208450e-02	5.044260e-03	1.932800e-02
162           	3.042890e-02	2.228790e-02	5.035830e-03	1.920260e-02
163           	2.870930e-02	2.238690e-02	5.055990e-03	1.894520e-02
164           	2.770820e-02	2.241320e-02	5.114400e-03	1.881970e-02
165           	2.743500e-02	2.233470e-02	5.125500e-03	1.859850e-02
166           	2.744250e-02	2.209860e-02	5.129670e-03	1.832570e-02
167           	2.754900e-02	2.206530e-02	5.168570e-03	1.818320e-02
168           	2.871490e-02	2.220950e-02	5.293670e-03	1.845720e-02
169           	2.948420e-02	2.230190e-02	5.437680e-03	1.904280e-02
170           	3.033350e-02	2.270880e-02	5.621790e-03	1.980000e-02
171           	3.094690e-02	2.340040e-02	5.718720e-03	2.047380e-02
172           	3.075440e-02	2.417120e-02	5.789920e-03	2.088430e-02
173           	2.968340e-02	2.450810e-02	5.823660e-03	2.042870e-02
174           	2.783430e-02	2.439740e-02	5.825720e-03	1.944960e-02
175           	2.781690e-02	2.389230e-02	5.815450e-03	1.836530e-02
176           	2.904080e-02	2.305030e-02	5.762550e-03	1.758490e-02
177           	3.034910e-02	2.224500e-02	5.605740e-03	1.696250e-02
178           	3.072040e-02	2.183000e-02	5.492370e-03	1.688080e-02
179           	3.068220e-02	2.174620e-02	5.443900e-03	1.737410e-02
180           	3.153940e-02	2.230180e-02	5.451080e-03	1.856510e-02
181           	3.235370e-02	2.267010e-02	5.517740e-03	1.956990e-02
182           	3.241130e-02	2.292160e-02	5.567140e-03	2.008010e-02
183           	3.186280e-02	2.364330e-02	5.660840e-03	2.042340e-02
184           	3.098280e-02	2.439030e-02	5.731680e-03	2.057560e-02
185           	2.995080e-02	2.506970e-02	5.869380e-03	2.080490e-02
186           	2.919210e-02	2.566410e-02	6.086090e-03	2.127670e-02
187           	2.910610e-02	2.586760e-02	6.274950e-03	2.166700e-02
188           	3.015220e-02	2.597680e-02	6.349390e-03	2.180490e-02
189           	3.169370e-02	2.624890e-02	6.414060e-03	2.206380e-02
190           	3.390680e-02	2.678360e-02	6.599870e-03	2.280370e-02
191           	3.543310e-02	2.723140e-02	6.806990e-03	2.351710e-02
192           	3.572990e-02	2.759020e-02	7.098410e-03	2.419120e-02
193           	3.599800e-02	2.891720e-02	7.428570e-03	2.562020e-02
194           	3.624030e-02	3.030350e-02	7.611030e-03	2.693500e-02
195           	3.594460e-02	3.053720e-02	7.547740e-03	2.674050e-02
196           	3.466400e-02	3.021600e-02	7.307080e-03	2.527490e-02
197           	3.308780e-02	2.897380e-02	7.035710e-03	2.338920e-02
198           	3.309920e-02	2.718570e-02	6.790570e-03	2.155830e-02
199           	3.467640e-02	2.552420e-02	6.481100e-03	2.010020e-02
200           	3.581040e-02	2.433530e-02	6.176250e-03	1.933840e-02
201           	3.615670e-02	2.376560e-02	5.937750e-03	1.897950e-02
202           	3.524830e-02	2.399580e-02	5.774180e-03	1.939640e-02
203           	3.484020e-02	2.395900e-02	5.572930e-03	1.997350e-02
204           	3.425990e-02	2.328480e-02	5.313880e-03	2.021130e-02
205           	3.315910e-02	2.228700e-02	5.059100e-03	1.969300e-02
206           	3.181060e-02	2.149300e-02	4.922250e-03	1.908800e-02
207           	3.014740e-02	2.141560e-02	4.889140e-03	1.877220e-02
208           	2.821610e-02	2.145800e-02	4.879310e-03	1.840700e-02
209           	2.689500e-02	2.156760e-02	4.927740e-03	1.817010e-02
210           	2.624780e-02	2.167720e-02	4.950240e-03	1.799910e-02
211           	2.629180e-02	2.157140e-02	4.964440e-03	1.775380e-02
212           	2.651200e-02	2.140840e-02	4.961820e-03	1.748600e-02
213           	2.695650e-02	2.150240e-02	5.032610e-03	1.761380e-02
214           	2.797670e-02	2.170700e-02	5.173530e-03	1.798900e-02
215           	2.886960e-02	2.206020e-02	5.363460e-03	1.870900e-02
216           	2.944110e-02	2.260470e-02	5.496460e-03	1.945160e-02
217           	2.948860e-02	2.323850e-02	5.544130e-03	1.994110e-02
218           	2.891940e-02	2.368930e-02	5.606560e-03	1.997820e-02
219           	2.783950e-02	2.383420e-02	5.603890e-03	1.926240e-02
220           	2.711300e-02	2.354910e-02	5.619890e-03	1.823200e-02
221           	2.723930e-02	2.304450e-02	5.609310e-03	1.738680e-02
222           	2.802820e-02	2.231750e-02	5.487680e-03	1.662140e-02
223           	2.865340e-02	2.165740e-02	5.337730e-03	1.627450e-02
224           	2.951750e-02	2.128010e-02	5.250340e-03	1.635230e-02
225           	2.994980e-02	2.160010e-02	5.264740e-03	1.721960e-02
226           	3.069710e-02	2.215870e-02	5.287320e-03	1.833070e-02
227           	3.082520e-02	2.241700e-02	5.322950e-03	1.907530e-02
228           	3.033580e-02	2.287900e-02	5.388060e-03	1.956050e-02
229           	2.949590e-02	2.339040e-02	5.453360e-03	1.969190e-02
230           	2.846390e-02	2.387170e-02	5.590200e-03	1.977200e-02
231           	2.761490e-02	2.443170e-02	5.757250e-03	2.020710e-02
232           	2.708700e-02	2.474700e-02	5.958910e-03	2.060610e-02
233           	2.767260e-02	2.494820e-02	6.079250e-03	2.087450e-02
234           	2.918870e-02	2.518120e-02	6.159040e-03	2.126070e-02
235           	3.110960e-02	2.540830e-02	6.276070e-03	2.175350e-02
236           	3.271340e-02	2.574170e-02	6.453990e-03	2.218790e-02
237           	3.359380e-02	2.606600e-02	6.686530e-03	2.253540e-02
238           	3.345590e-02	2.710180e-02	6.951590e-03	2.373860e-02
239           	3.379940e-02	2.819490e-02	7.085220e-03	2.466100e-02
240           	3.357000e-02	2.875020e-02	7.071050e-03	2.493040e-02
241           	3.227300e-02	2.857000e-02	6.855980e-03	2.381130e-02
242           	3.085760e-02	2.755540e-02	6.597910e-03	2.210700e-02
243           	3.073370e-02	2.604680e-02	6.366570e-03	2.035630e-02
244           	3.172560e-02	2.461420e-02	6.117150e-03	1.890060e-02
245           	3.255460e-02	2.338000e-02	5.864270e-03	1.808560e-02
246           	3.252570e-02	2.251530e-02	5.621620e-03	1.754140e-02
247           	3.197960e-02	2.249450e-02	5.414280e-03	1.770840e-02
248           	3.163290e-02	2.254330e-02	5.213780e-03	1.819510e-02
249           	3.139390e-02	2.219480e-02	5.028390e-03	1.855840e-02
250           	3.051030e-02	2.148900e-02	4.844030e-03	1.849640e-02
251           	2.925380e-02	2.079730e-02	4.711100e-03	1.802120e-02
252           	2.776700e-02	2.051790e-02	4.685490e-03	1.773810e-02
253           	2.630060e-02	2.043090e-02	4.738370e-03	1.750970e-02
254           	2.508170e-02	2.054340e-02	4.785460e-03	1.734160e-02
255           	2.435820e-02	2.074360e-02	4.829930e-03	1.730900e-02
256           	2.407460e-02	2.075250e-02	4.857350e-03	1.714830e-02
257           	2.426000e-02	2.064370e-02	4.887060e-03	1.708830e-02
258           	2.466750e-02	2.061290e-02	4.932910e-03	1.723860e-02
259           	2.557920e-02	2.058380e-02	5.059220e-03	1.720280e-02
260           	2.657500e-02	2.080560e-02	5.173850e-03	1.754220e-02
261           	2.698920e-02	2.143130e-02	5.241330e-03	1.813320e-02
262           	2.682530e-02	2.214030e-02	5.244940e-03	1.865270e-02
263           	2.607440e-02	2.236090e-02	5.160950e-03	1.842290e-02
264           	2.500210e-02	2.208710e-02	5.062280e-03	1.776520e-02
265           	2.442930e-02	2.149940e-02	4.982300e-03	1.665160e-02
266           	2.428280e-02	2.074250e-02	4.886430e-03	1.547570e-02
267           	2.413860e-02	1.974520e-02	4.777450e-03	1.455530e-02
268           	2.400360e-02	1.889950e-02	4.605430e-03	1.394640e-02
269           	2.449660e-02	1.845980e-02	4.437980e-03	1.381600e-02
270           	2.465640e-02	1.833520e-02	4.355620e-03	1.416770e-02
271           	2.484220e-02	1.855290e-02	4.307810e-03	1.474760e-02
272           	2.473410e-02	1.891740e-02	4.289710e-03	1.543350e-02
273           	2.422250e-02	1.899620e-02	4.297660e-03	1.572160e-02
274           	2.336700e-02	1.898920e-02	4.312580e-03	1.565610e-02
275           	2.233910e-02	1.898350e-02	4.409800e-03	1.550730e-02
276           	2.141540e-02	1.904400e-02	4.507380e-03	1.548600e-02
277           	2.078230e-02	1.918500e-02	4.611790e-03	1.573380e-02
278           	2.089300e-02	1.928610e-02	4.711040e-03	1.597840e-02
279           	2.165420e-02	1.940080e-02	4.757300e-03	1.631610e-02
280           	2.257430e-02	1.933970e-02	4.772300e-03	1.645900e-02
281           	2.331440e-02	1.917290e-02	4.828530e-03	1.622300e-02
282           	2.362490e-02	1.937410e-02	4.841720e-03	1.626030e-02
283           	2.384960e-02	1.980750e-02	4.838630e-03	1.645590e-02
284           	2.335770e-02	2.014320e-02	4.780230e-03	1.669640e-02
285           	2.242120e-02	2.025710e-02	4.621790e-03	1.641590e-02
286           	2.147960e-02	1.980680e-02	4.492280e-03	1.577150e-02
287           	2.136820e-02	1.894850e-02	4.344670e-03	1.476420e-02
288           	2.130700e-02	1.774830e-02	4.145890e-03	1.354990e-02
289           	2.092230e-02	1.655260e-02	3.922070e-03	1.250820e-02
290           	2.054820e-02	1.549190e-02	3.708700e-03	1.169780e-02
291           	2.027350e-02	1.486740e-02	3.525660e-03	1.127800e-02
292           	1.993150e-02	1.457010e-02	3.388960e-03	1.126760e-02
293           	1.936430e-02	1.454270e-02	3.322810e-03	1.152290e-02
294           	1.871720e-02	1.480010e-02	3.269530e-03	1.188790e-02
295           	1.794690e-02	1.480400e-02	3.212890e-03	1.193330e-02
296           	1.716260e-02	1.457910e-02	3.209620e-03	1.177050e-02
297           	1.633150e-02	1.434990e-02	3.267410e-03	1.152370e-02
298           	1.582930e-02	1.417580e-02	3.322020e-03	1.137700e-02
299           	1.567100e-02	1.399810e-02	3.327690e-03	1.138010e-02
300           	1.587310e-02	1.370550e-02	3.261320e-03	1.138530e-02
301           	1.604760e-02	1.328080e-02	3.169030e-03	1.118510e-02
302           	1.616250e-02	1.273230e-02	3.080900e-03	1.087960e-02
303           	1.608760e-02	1.241210e-02	2.984720e-03	1.065500e-02
304           	1.584720e-02	1.232840e-02	2.901370e-03	1.043760e-02
305           	1.545310e-02	1.237100e-02	2.845720e-03	1.019860e-02
306           	1.483610e-02	1.252320e-02	2.801080e-03	9.987730e-03
307           	1.407310e-02	1.253530e-02	2.721320e-03	9.774500e-03
308           	1.338310e-02	1.241300e-02	2.693140e-03	9.467390e-03
309           	1.333470e-02	1.212530e-02	2.645170e-03	9.058950e-03
310           	1.357260e-02	1.159660e-02	2.527830e-03	8.529200e-03
311           	1.359760e-02	1.087070e-02	2.351200e-03	8.029440e-03
312           	1.342160e-02	9.932480e-03	2.139780e-03	7.455490e-03
313           	1.297490e-02	9.077020e-03	1.941630e-03	7.019130e-03
314           	1.228530e-02	8.465280e-03	1.772950e-03	6.722550e-03
315           	1.149640e-02	8.095660e-03	1.673590e-03	6.534300e-03
316           	1.063640e-02	7.960840e-03	1.644380e-03	6.437030e-03
317           	9.948880e-03	7.841640e-03	1.661810e-03	6.259320e-03
318           	9.281410e-03	7.814830e-03	1.711580e-03	6.113650e-03
319           	8.863390e-03	7.957310e-03	1.801690e-03	6.099560e-03
320           	8.755910e-03	8.166300e-03	1.875370e-03	6.157520e-03
321           	9.158140e-03	8.349020e-03	1.900060e-03	6.284460e-03
322           	9.659320e-03	8.408790e-03	1.869070e-03	6.353630e-03
323           	9.962920e-03	8.262120e-03	1.794310e-03	6.296810e-03
324           	9.998960e-03	7.830490e-03	1.692600e-03	6.052280e-03
325           	9.806170e-03	7.263740e-03	1.569070e-03	5.807860e-03
326           	9.411040e-03	6.650080e-03	1.438540e-03	5.536070e-03
327           	8.876300e-03	6.181560e-03	1.329130e-03	5.248580e-03
328           	8.241400e-03	5.892830e-03	1.265800e-03	4.967760e-03
329           	7.626200e-03	5.786820e-03	1.230620e-03	4.742540e-03
330           	7.110710e-03	5.735380e-03	1.220460e-03	4.593680e-03
331           	6.703390e-03	5.708150e-03	1.239880e-03	4.466690e-03
332           	6.546440e-03	5.679450e-03	1.245930e-03	4.364470e-03
333           	6.636110e-03	5.588800e-03	1.218970e-03	4.248500e-03
334           	6.762700e-03	5.432040e-03	1.158200e-03	4.114210e-03
335           	6.781470e-03	5.144250e-03	1.072460e-03	3.908730e-03
336           	6.620040e-03	4.809080e-03	9.714920e-04	3.674160e-03
337           	6.324510e-03	4.422900e-03	8.623640e-04	3.455990e-03
338           	5.917700e-03	3.996530e-03	7.635570e-04	3.261480e-03
339           	5.467720e-03	3.630690e-03	6.925410e-04	3.067210e-03
340           	5.009540e-03	3.402440e-03	6.542640e-04	2.875700e-03
341           	4.616460e-03	3.240960e-03	6.506070e-04	2.702900e-03
342           	4.307040e-03	3.176740e-03	6.806620e-04	2.600180e-03
343           	4.089370e-03	3.186850e-03	7.206200e-04	2.578470e-03
344           	4.014740e-03	3.225400e-03	7.520470e-04	2.582830e-03
345           	4.097480e-03	3.257630e-03	7.629290e-04	2.607740e-03
346           	4.280360e-03	3.281590e-03	7.546530e-04	2.616560e-03
347           	4.421640e-03	3.247940e-03	7.286190e-04	2.597440e-03
348           	4.463600e-03	3.125600e-03	6.884550e-04	2.509740e-03
349           	4.397720e-03	2.957530e-03	6.380800e-04	2.394700e-03
350           	4.245880e-03	2.743830e-03	5.827230e-04	2.266740e-03
351           	4.040110e-03	2.502090e-03	5.292650e-04	2.131510e-03
352           	3.797470e-03	2.277200e-03	4.830880e-04	1.997930e-03
353           	3.528000e-03	2.104740e-03	4.469040e-04	1.864330e-03
354           	3.254190e-03	1.988530e-03	4.237190e-04	1.750860e-03
355           	3.003760e-03	1.908750e-03	4.138590e-04	1.673230e-03
356           	2.775330e-03	1.877530e-03	4.160190e-04	1.642930e-03
357           	2.584920e-03	1.860280e-03	4.194940e-04	1.620820e-03
358           	2.477000e-03	1.824050e-03	4.168290e-04	1.590610e-03
359           	2.437930e-03	1.791220e-03	4.085050e-04	1.559060e-03
360           	2.438810e-03	1.752000e-03	3.942960e-04	1.520170e-03
361           	2.432830e-03	1.699970e-03	3.752180e-04	1.473260e-03
362           	2.410100e-03	1.627860e-03	3.536460e-04	1.418630e-03
363           	2.368160e-03	1.534930e-03	3.313310e-04	1.359480e-03
364           	2.319480e-03	1.431530e-03	3.117200e-04	1.295080e-03
365           	2.257540e-03	1.338770e-03	2.974720e-04	1.238960e-03
366           	2.186340e-03	1.249970e-03	2.861840e-04	1.183910e-03
367           	2.109480e-03	1.180360e-03	2.788140e-04	1.133440e-03
368           	2.032570e-03	1.133360e-03	2.764470e-04	1.094210e-03
369           	1.959910e-03	1.103410e-03	2.759610e-04	1.066800e-03
370           	1.901130e-03	1.087240e-03	2.764430e-04	1.055940e-03
371           	1.853640e-03	1.084800e-03	2.770610e-04	1.053840e-03
372           	1.827170e-03	1.087680e-03	2.769770e-04	1.056010e-03
373           	1.816700e-03	1.089940e-03	2.757470e-04	1.056670e-03
374           	1.807210e-03	1.089160e-03	2.729280e-04	1.054940e-03
375           	1.791410e-03	1.083810e-03	2.688000e-04	1.050330e-03
376           	1.768750e-03	1.070890e-03	2.633980e-04	1.041070e-03
377           	1.741650e-03	1.051980e-03	2.576140e-04	1.028160e-03
378           	1.707760e-03	1.028690e-03	2.516910e-04	1.013960e-03
379           	1.669910e-03	1.005980e-03	2.456370e-04	9.981640e-04
380           	1.629420e-03	9.882550e-04	2.397420e-04	9.825760e-04
381           	1.589740e-03	9.740660e-04	2.343650e-04	9.681620e-04
382           	1.554350e-03	9.629510e-04	2.301660e-04	9.566760e-04
383           	1.528750e-03	9.556040e-04	2.271840e-04	9.483250e-04
384           	1.511830e-03	9.501730e-04	2.249020e-04	9.427030e-04
385           	1.501420e-03	9.464970e-04	2.230620e-04	9.383770e-04
386           	1.496570e-03	9.429790e-04	2.210910e-04	9.339060e-04
387           	1.494850e-03	9.390980e-04	2.189500e-04	9.291220e-04
388           	1.493980e-03	9.336550e-04	2.166330e-04	9.237730e-04
389           	1.494250e-03	9.271030e-04	2.140520e-04	9.185210e-04
390           	1.495350e-03	9.196740e-04	2.113470e-04	9.128900e-04
391           	1.495370e-03	9.118760e-04	2.086020e-04	9.062780e-04
392           	1.493490e-03	9.051430e-04	2.057130e-04	8.995900e-04
393           	1.493770e-03	8.966940e-04	2.028830e-04	8.938810e-04
394           	1.490790e-03	8.888500e-04	2.007090e-04	8.855590e-04
395           	1.486130e-03	8.830570e-04	1.986800e-04	8.782940e-04
396           	1.481090e-03	8.794970e-04	1.966970e-04	8.728100e-04
397           	1.475920e-03	8.770060e-04	1.948260e-04	8.683450e-04
398           	1.470030e-03	8.742430e-04	1.929660e-04	8.647850e-04
399           	1.463270e-03	8.712470e-04	1.911190e-04	8.605470e-04
400           	1.455170e-03	8.666950e-04	1.890930e-04	8.545270e-04
401           	1.445690e-03	8.616340e-04	1.867810e-04	8.481360e-04
402           	1.435930e-03	8.558100e-04	1.842610e-04	8.394180e-04
403           	1.424580e-03	8.475140e-04	1.813620e-04	8.291290e-04
404           	1.411550e-03	8.369800e-04	1.780530e-04	8.167400e-04
405           	1.396940e-03	8.247950e-04	1.742620e-04	8.017420e-04
406           	1.380490e-03	8.103830e-04	1.700610e-04	7.852190e-04
407           	1.361150e-03	7.928900e-04	1.654790e-04	7.674060e-04
408           	1.340210e-03	7.737870e-04	1.607080e-04	7.473450e-04
409           	1.319250e-03	7.547540e-04	1.558460e-04	7.261150e-04
410           	1.295490e-03	7.340420e-04	1.507650e-04	7.038880e-04
411           	1.270730e-03	7.131780e-04	1.456260e-04	6.793980e-04
412           	1.243100e-03	6.972300e-04	1.406580e-04	6.588100e-04
413           	1.214100e-03	6.795980e-04	1.356610e-04	6.374830e-04
414           	1.184430e-03	6.608430e-04	1.307500e-04	6.149130e-04
415           	1.154080e-03	6.423320e-04	1.260560e-04	5.928670e-04
416           	1.123550e-03	6.250340e-04	1.216080e-04	5.718510e-04
417           	1.094550e-03	6.089050e-04	1.174810e-04	5.526110e-04
418           	1.066700e-03	5.938620e-04	1.137360e-04	5.345110e-04
419           	1.039510e-03	5.792060e-04	1.103780e-04	5.183650e-04
420           	1.012910e-03	5.651900e-04	1.073920e-04	5.032470e-04
421           	9.880920e-04	5.517500e-04	1.046990e-04	4.897540e-04
422           	9.648790e-04	5.393580e-04	1.023250e-04	4.773950e-04
423           	9.430160e-04	5.275730e-04	1.002370e-04	4.658820e-04
424           	9.222040e-04	5.163940e-04	9.840110e-05	4.553560e-04
425           	9.021220e-04	5.056210e-04	9.673050e-05	4.456460e-04
426           	8.834380e-04	4.958330e-04	9.517930e-05	4.360310e-04
427           	8.662080e-04	4.868540e-04	9.382960e-05	4.275860e-04
428           	8.501230e-04	4.787050e-04	9.268120e-05	4.198690e-04
429           	8.353440e-04	4.717660e-04	9.166220e-05	4.132360e-04
430           	8.217890e-04	4.657740e-04	9.075880e-05	4.079000e-04
431           	8.088680e-04	4.599580e-04	8.994120e-05	4.038520e-04
432           	7.969600e-04	4.553260e-04	8.933640e-05	4.009440e-04
433           	7.862910e-04	4.517160e-04	8.887750e-05	3.992310e-04
434           	7.766700e-04	4.491970e-04	8.861890e-05	3.985160e-04
435           	7.681440e-04	4.475700e-04	8.852450e-05	3.984710e-04
436           	7.614070e-04	4.467640e-04	8.862430e-05	3.994310e-04
437           	7.572040e-04	4.466360e-04	8.893730e-05	4.009400e-04
438           	7.551860e-04	4.469950e-04	8.939440e-05	4.032010e-04
439           	7.539300e-04	4.483650e-04	9.004050e-05	4.060220e-04
440           	7.537580e-04	4.504770e-04	9.080370e-05	4.092880e-04
441           	7.555070e-04	4.532040e-04	9.169300e-05	4.131430e-04
442           	7.585860e-04	4.561420e-04	9.271200e-05	4.174580e-04
443           	7.625930e-04	4.593780e-04	9.380050e-05	4.222760e-04
444           	7.673880e-04	4.629950e-04	9.498960e-05	4.270600e-04
445           	7.721920e-04	4.665930e-04	9.625810e-05	4.320030e-04
446           	7.772510e-04	4.700670e-04	9.764470e-05	4.370390e-04