# Force coefficients
# liftDir     : (0.000000e+00 0.000000e+00 1.000000e+00)
# dragDir     : (0.000000e+00 1.000000e+00 0.000000e+00)
# pitchAxis   : (1.000000e+00 0.000000e+00 0.000000e+00)
# magUInf     : 3.138958e-02
# lRef        : 4.000000e+00
# Aref        : 2.562000e-02
# CofR        : (0.000000e+00 0.000000e+00 0.000000e+00)
# Time        	Cm            	Cd            	Cl            	Cl(f)         	Cl(r)         
1             	-3.441665e-03	7.892035e-01	-8.479616e-02	-4.583975e-02	-3.895642e-02
2             	-2.508281e-03	8.217110e-01	-1.424433e-01	-7.372991e-02	-6.871335e-02
3             	-2.510717e-03	9.296220e-01	-8.619008e-02	-4.560576e-02	-4.058432e-02
4             	-2.419445e-03	9.362019e-01	-9.407765e-03	-7.123328e-03	-2.284437e-03
5             	-2.674910e-03	9.823258e-01	6.484606e-02	2.974812e-02	3.509794e-02
6             	-2.669551e-03	9.961473e-01	7.100060e-02	3.283075e-02	3.816985e-02
7             	-2.568068e-03	9.814870e-01	5.602027e-02	2.544207e-02	3.057820e-02
8             	-2.540776e-03	9.906645e-01	2.922968e-02	1.207407e-02	1.715562e-02
9             	-2.506100e-03	1.000148e+00	2.944168e-04	-2.358892e-03	2.653308e-03
10            	-2.521083e-03	1.016744e+00	-1.475688e-02	-9.899522e-03	-4.857356e-03
11            	-2.492724e-03	1.021631e+00	-1.772835e-02	-1.135690e-02	-6.371450e-03
12            	-2.454245e-03	1.020571e+00	-1.040369e-02	-7.656092e-03	-2.747602e-03
13            	-2.395813e-03	1.010955e+00	1.257753e-03	-1.766936e-03	3.024689e-03
14            	-2.345330e-03	9.984800e-01	7.825278e-03	1.567309e-03	6.257969e-03
15            	-2.338301e-03	9.934664e-01	2.459201e-03	-1.108700e-03	3.567901e-03
16            	-2.315321e-03	9.902306e-01	-9.855535e-03	-7.243089e-03	-2.612447e-03
17            	-2.344501e-03	9.943427e-01	-2.035050e-02	-1.251975e-02	-7.830749e-03
18            	-2.366037e-03	9.979706e-01	-2.945233e-02	-1.709220e-02	-1.236013e-02
19            	-2.372977e-03	1.000400e+00	-3.601725e-02	-2.038160e-02	-1.563565e-02
20            	-2.374098e-03	1.002671e+00	-3.077757e-02	-1.776288e-02	-1.301469e-02
21            	-2.400962e-03	1.005025e+00	-2.770843e-02	-1.625518e-02	-1.145325e-02
22            	-2.452914e-03	1.010722e+00	-2.413520e-02	-1.452051e-02	-9.614687e-03
23            	-2.477075e-03	1.012806e+00	-2.352827e-02	-1.424121e-02	-9.287059e-03
24            	-2.498606e-03	1.015251e+00	-2.375862e-02	-1.437792e-02	-9.380706e-03
25            	-2.515435e-03	1.016951e+00	-2.416980e-02	-1.460034e-02	-9.569466e-03
26            	-2.522816e-03	1.017320e+00	-2.426460e-02	-1.465512e-02	-9.609486e-03
27            	-2.519124e-03	1.016206e+00	-2.356103e-02	-1.429964e-02	-9.261391e-03
28            	-2.509138e-03	1.014152e+00	-2.228557e-02	-1.365192e-02	-8.633647e-03
29            	-2.499728e-03	1.012381e+00	-2.134145e-02	-1.317045e-02	-8.170998e-03
30            	-2.494905e-03	1.011557e+00	-2.085404e-02	-1.292193e-02	-7.932114e-03
31            	-2.493585e-03	1.011715e+00	-2.106612e-02	-1.302664e-02	-8.039473e-03
32            	-2.495966e-03	1.012775e+00	-2.184511e-02	-1.341852e-02	-8.426586e-03
33            	-2.500632e-03	1.014542e+00	-2.208546e-02	-1.354336e-02	-8.542099e-03
34            	-2.504555e-03	1.016390e+00	-2.174548e-02	-1.337730e-02	-8.368184e-03
35            	-2.508954e-03	1.018326e+00	-2.093784e-02	-1.297787e-02	-7.959966e-03
36            	-2.514310e-03	1.020344e+00	-1.985893e-02	-1.244377e-02	-7.415155e-03
37            	-2.520057e-03	1.022331e+00	-1.882260e-02	-1.193136e-02	-6.891245e-03
38            	-2.525230e-03	1.024177e+00	-1.807093e-02	-1.156069e-02	-6.510233e-03
39            	-2.528946e-03	1.025808e+00	-1.767637e-02	-1.136713e-02	-6.309239e-03
40            	-2.529447e-03	1.026916e+00	-1.760744e-02	-1.133317e-02	-6.274274e-03
41            	-2.527485e-03	1.027601e+00	-1.775959e-02	-1.140728e-02	-6.352312e-03
42            	-2.522478e-03	1.027783e+00	-1.799034e-02	-1.151765e-02	-6.472690e-03
43            	-2.514481e-03	1.027387e+00	-1.819023e-02	-1.160959e-02	-6.580632e-03
44            	-2.504553e-03	1.026475e+00	-1.824616e-02	-1.162763e-02	-6.618525e-03
45            	-2.496970e-03	1.025758e+00	-1.820905e-02	-1.160150e-02	-6.607557e-03
46            	-2.490482e-03	1.025148e+00	-1.818038e-02	-1.158067e-02	-6.599709e-03
47            	-2.485107e-03	1.024758e+00	-1.810346e-02	-1.153684e-02	-6.566623e-03
48            	-2.481439e-03	1.024583e+00	-1.792873e-02	-1.144580e-02	-6.482926e-03
49            	-2.479067e-03	1.024578e+00	-1.764584e-02	-1.130199e-02	-6.343854e-03
50            	-2.478612e-03	1.024879e+00	-1.731435e-02	-1.113579e-02	-6.178564e-03
51            	-2.481052e-03	1.025672e+00	-1.699053e-02	-1.097632e-02	-6.014212e-03
52            	-2.485941e-03	1.027004e+00	-1.673077e-02	-1.085132e-02	-5.879443e-03
53            	-2.491296e-03	1.028658e+00	-1.650463e-02	-1.074361e-02	-5.761019e-03
54            	-2.497157e-03	1.030575e+00	-1.633914e-02	-1.066673e-02	-5.672414e-03
55            	-2.503493e-03	1.032712e+00	-1.636132e-02	-1.068415e-02	-5.677166e-03
56            	-2.509039e-03	1.034690e+00	-1.647441e-02	-1.074624e-02	-5.728165e-03
57            	-2.514607e-03	1.036584e+00	-1.668625e-02	-1.085773e-02	-5.828519e-03
58            	-2.519105e-03	1.038255e+00	-1.698267e-02	-1.101044e-02	-5.972232e-03
59            	-2.521873e-03	1.039636e+00	-1.741046e-02	-1.122711e-02	-6.183358e-03
60            	-2.522212e-03	1.040620e+00	-1.806700e-02	-1.155571e-02	-6.511289e-03
61            	-2.519150e-03	1.040906e+00	-1.870950e-02	-1.187390e-02	-6.835603e-03
62            	-2.512566e-03	1.040401e+00	-1.919337e-02	-1.210925e-02	-7.084118e-03
63            	-2.503630e-03	1.039250e+00	-1.944429e-02	-1.222577e-02	-7.218514e-03
64            	-2.494402e-03	1.037902e+00	-1.957682e-02	-1.228281e-02	-7.294006e-03
65            	-2.485332e-03	1.036431e+00	-1.954835e-02	-1.225951e-02	-7.288845e-03
66            	-2.476987e-03	1.034980e+00	-1.935607e-02	-1.215502e-02	-7.201049e-03
67            	-2.469400e-03	1.033637e+00	-1.904301e-02	-1.199091e-02	-7.052106e-03
68            	-2.463434e-03	1.032528e+00	-1.859296e-02	-1.175991e-02	-6.833046e-03
69            	-2.458884e-03	1.031647e+00	-1.796918e-02	-1.144347e-02	-6.525706e-03
70            	-2.456074e-03	1.031103e+00	-1.714871e-02	-1.103043e-02	-6.118282e-03
71            	-2.454876e-03	1.030895e+00	-1.609488e-02	-1.050232e-02	-5.592566e-03
72            	-2.456382e-03	1.031264e+00	-1.497537e-02	-9.944069e-03	-5.031305e-03
73            	-2.461726e-03	1.032346e+00	-1.390858e-02	-9.416017e-03	-4.492565e-03
74            	-2.468953e-03	1.033971e+00	-1.292076e-02	-8.929334e-03	-3.991428e-03
75            	-2.477674e-03	1.036052e+00	-1.213464e-02	-8.544993e-03	-3.589644e-03
76            	-2.487684e-03	1.038426e+00	-1.171444e-02	-8.344903e-03	-3.369535e-03
77            	-2.498063e-03	1.040894e+00	-1.170578e-02	-8.350952e-03	-3.354826e-03
78            	-2.508429e-03	1.043380e+00	-1.213184e-02	-8.574351e-03	-3.557493e-03
79            	-2.517646e-03	1.045684e+00	-1.292004e-02	-8.977667e-03	-3.942375e-03
80            	-2.523769e-03	1.047492e+00	-1.395417e-02	-9.500854e-03	-4.453316e-03
81            	-2.524655e-03	1.048294e+00	-1.519457e-02	-1.012194e-02	-5.072631e-03
82            	-2.523001e-03	1.048733e+00	-1.674229e-02	-1.089414e-02	-5.848142e-03
83            	-2.516677e-03	1.048206e+00	-1.824893e-02	-1.164114e-02	-6.607785e-03
84            	-2.506828e-03	1.046866e+00	-1.955730e-02	-1.228548e-02	-7.271821e-03
85            	-2.493167e-03	1.044598e+00	-2.048057e-02	-1.273345e-02	-7.747119e-03
86            	-2.476723e-03	1.041608e+00	-2.099375e-02	-1.297360e-02	-8.020154e-03
87            	-2.460876e-03	1.038478e+00	-2.121494e-02	-1.306835e-02	-8.146596e-03
88            	-2.446165e-03	1.035408e+00	-2.110005e-02	-1.299619e-02	-8.103862e-03
89            	-2.434355e-03	1.032779e+00	-2.066303e-02	-1.276587e-02	-7.897161e-03
90            	-2.424782e-03	1.030549e+00	-1.979071e-02	-1.232014e-02	-7.470573e-03
91            	-2.419652e-03	1.029025e+00	-1.844106e-02	-1.164018e-02	-6.800881e-03
92            	-2.418084e-03	1.028164e+00	-1.668397e-02	-1.076007e-02	-5.923900e-03
93            	-2.419550e-03	1.027947e+00	-1.458881e-02	-9.713955e-03	-4.874856e-03
94            	-2.425154e-03	1.028820e+00	-1.247098e-02	-8.660644e-03	-3.810336e-03
95            	-2.437501e-03	1.031021e+00	-1.066648e-02	-7.770740e-03	-2.895739e-03
96            	-2.456051e-03	1.034438e+00	-9.394895e-03	-7.153499e-03	-2.241396e-03
97            	-2.475374e-03	1.038258e+00	-8.722775e-03	-6.836762e-03	-1.886014e-03
98            	-2.494382e-03	1.042171e+00	-8.686839e-03	-6.837801e-03	-1.849038e-03
99            	-2.512833e-03	1.046191e+00	-9.305262e-03	-7.165464e-03	-2.139798e-03
100           	-2.526606e-03	1.049580e+00	-1.055973e-02	-7.806472e-03	-2.753259e-03
101           	-2.537614e-03	1.052490e+00	-1.262575e-02	-8.850488e-03	-3.775260e-03
102           	-2.544314e-03	1.054728e+00	-1.526223e-02	-1.017543e-02	-5.086800e-03
103           	-2.543960e-03	1.055687e+00	-1.798758e-02	-1.153775e-02	-6.449829e-03
104           	-2.534549e-03	1.054972e+00	-2.043119e-02	-1.275015e-02	-7.681048e-03
105           	-2.516681e-03	1.052389e+00	-2.211149e-02	-1.357243e-02	-8.539066e-03
106           	-2.494820e-03	1.048783e+00	-2.309341e-02	-1.404153e-02	-9.051885e-03
107           	-2.471732e-03	1.044624e+00	-2.356094e-02	-1.425220e-02	-9.308735e-03
108           	-2.451786e-03	1.040504e+00	-2.375799e-02	-1.433078e-02	-9.427210e-03
109           	-2.434767e-03	1.036536e+00	-2.366105e-02	-1.426529e-02	-9.395758e-03
110           	-2.419939e-03	1.032712e+00	-2.311978e-02	-1.397983e-02	-9.139953e-03
111           	-2.410046e-03	1.029504e+00	-2.213505e-02	-1.347757e-02	-8.657480e-03
112           	-2.405022e-03	1.027250e+00	-2.076646e-02	-1.278825e-02	-7.978209e-03
113           	-2.402117e-03	1.025747e+00	-1.884371e-02	-1.182397e-02	-7.019736e-03
114           	-2.404265e-03	1.025451e+00	-1.657700e-02	-1.069277e-02	-5.884236e-03
115           	-2.412896e-03	1.026542e+00	-1.420801e-02	-9.516901e-03	-4.691109e-03
116           	-2.428161e-03	1.029042e+00	-1.192937e-02	-8.392844e-03	-3.536522e-03
117           	-2.448909e-03	1.032809e+00	-1.015859e-02	-7.528202e-03	-2.630384e-03
118           	-2.474013e-03	1.037443e+00	-9.123074e-03	-7.035550e-03	-2.087524e-03
119           	-2.498687e-03	1.042329e+00	-8.878343e-03	-6.937858e-03	-1.940485e-03
120           	-2.523923e-03	1.047633e+00	-9.756728e-03	-7.402287e-03	-2.354441e-03
121           	-2.542879e-03	1.052151e+00	-1.178651e-02	-8.436134e-03	-3.350375e-03
122           	-2.556368e-03	1.055827e+00	-1.511192e-02	-1.011233e-02	-4.999591e-03
123           	-2.559379e-03	1.057900e+00	-1.896590e-02	-1.204233e-02	-6.923571e-03
124           	-2.553622e-03	1.058380e+00	-2.240579e-02	-1.375652e-02	-8.649274e-03
125           	-2.539463e-03	1.057450e+00	-2.492355e-02	-1.500124e-02	-9.922312e-03
126           	-2.517897e-03	1.054631e+00	-2.606690e-02	-1.555134e-02	-1.051555e-02
127           	-2.490365e-03	1.050455e+00	-2.599386e-02	-1.548730e-02	-1.050657e-02
128           	-2.464504e-03	1.045868e+00	-2.531122e-02	-1.512012e-02	-1.019111e-02
129           	-2.442353e-03	1.041279e+00	-2.427020e-02	-1.457745e-02	-9.692746e-03
130           	-2.424270e-03	1.036820e+00	-2.298076e-02	-1.391465e-02	-9.066111e-03
131           	-2.410935e-03	1.032842e+00	-2.149127e-02	-1.315657e-02	-8.334701e-03
132           	-2.404255e-03	1.029634e+00	-1.987499e-02	-1.234175e-02	-7.533239e-03
133           	-2.407744e-03	1.028310e+00	-1.839346e-02	-1.160447e-02	-6.788984e-03
134           	-2.410357e-03	1.027536e+00	-1.660766e-02	-1.071419e-02	-5.893475e-03
135           	-2.417520e-03	1.028205e+00	-1.510057e-02	-9.967803e-03	-5.132763e-03
136           	-2.428606e-03	1.030115e+00	-1.364430e-02	-9.250755e-03	-4.393544e-03
137           	-2.444741e-03	1.033232e+00	-1.229960e-02	-8.594543e-03	-3.705060e-03
138           	-2.465275e-03	1.037319e+00	-1.128423e-02	-8.107389e-03	-3.176840e-03
139           	-2.487592e-03	1.041892e+00	-1.080209e-02	-7.888636e-03	-2.913452e-03
140           	-2.509107e-03	1.046506e+00	-1.113662e-02	-8.077418e-03	-3.059203e-03
141           	-2.526814e-03	1.050602e+00	-1.240923e-02	-8.731429e-03	-3.677800e-03
142           	-2.541286e-03	1.054399e+00	-1.473159e-02	-9.907079e-03	-4.824508e-03
143           	-2.550518e-03	1.057385e+00	-1.781761e-02	-1.145932e-02	-6.358289e-03
144           	-2.548703e-03	1.058464e+00	-2.093009e-02	-1.301375e-02	-7.916340e-03
145           	-2.539007e-03	1.057879e+00	-2.356511e-02	-1.432156e-02	-9.243547e-03
146           	-2.521358e-03	1.055840e+00	-2.518815e-02	-1.511544e-02	-1.007272e-02
147           	-2.498347e-03	1.052377e+00	-2.563373e-02	-1.531521e-02	-1.031852e-02
148           	-2.473679e-03	1.048112e+00	-2.520070e-02	-1.507403e-02	-1.012667e-02
149           	-2.449912e-03	1.043429e+00	-2.419048e-02	-1.454515e-02	-9.645325e-03
150           	-2.428916e-03	1.038655e+00	-2.285229e-02	-1.385506e-02	-8.997231e-03
151           	-2.411582e-03	1.034103e+00	-2.126679e-02	-1.304498e-02	-8.221815e-03
152           	-2.399759e-03	1.030265e+00	-1.955989e-02	-1.217970e-02	-7.380185e-03
153           	-2.396866e-03	1.027542e+00	-1.783027e-02	-1.131200e-02	-6.518269e-03
154           	-2.400272e-03	1.026485e+00	-1.622737e-02	-1.051396e-02	-5.713412e-03
155           	-2.409400e-03	1.026953e+00	-1.483748e-02	-9.828143e-03	-5.009342e-03
156           	-2.424110e-03	1.029271e+00	-1.384701e-02	-9.347617e-03	-4.499397e-03
157           	-2.442072e-03	1.032642e+00	-1.285111e-02	-8.867628e-03	-3.983483e-03
158           	-2.462043e-03	1.036821e+00	-1.203215e-02	-8.478117e-03	-3.554031e-03
159           	-2.483616e-03	1.041448e+00	-1.158689e-02	-8.277062e-03	-3.309829e-03
160           	-2.504834e-03	1.046149e+00	-1.171129e-02	-8.360480e-03	-3.350811e-03
161           	-2.523527e-03	1.050489e+00	-1.260456e-02	-8.825808e-03	-3.778755e-03
162           	-2.535270e-03	1.053673e+00	-1.455772e-02	-9.814130e-03	-4.743589e-03
163           	-2.542265e-03	1.056284e+00	-1.785649e-02	-1.147051e-02	-6.385978e-03
164           	-2.545746e-03	1.058146e+00	-2.169204e-02	-1.339177e-02	-8.300275e-03
165           	-2.539449e-03	1.058131e+00	-2.487585e-02	-1.497737e-02	-9.898478e-03
166           	-2.524393e-03	1.056549e+00	-2.689918e-02	-1.597398e-02	-1.092519e-02
167           	-2.503775e-03	1.053487e+00	-2.747668e-02	-1.624212e-02	-1.123457e-02
168           	-2.479007e-03	1.049419e+00	-2.681386e-02	-1.588594e-02	-1.092792e-02
169           	-2.455576e-03	1.044960e+00	-2.552153e-02	-1.521634e-02	-1.030519e-02
170           	-2.434781e-03	1.040323e+00	-2.390103e-02	-1.438530e-02	-9.515736e-03
171           	-2.416877e-03	1.035678e+00	-2.208340e-02	-1.345858e-02	-8.624823e-03
172           	-2.405569e-03	1.031672e+00	-2.025015e-02	-1.253064e-02	-7.719505e-03
173           	-2.400034e-03	1.028614e+00	-1.845830e-02	-1.162918e-02	-6.829114e-03
174           	-2.399578e-03	1.026437e+00	-1.675579e-02	-1.077747e-02	-5.978317e-03
175           	-2.405438e-03	1.026047e+00	-1.551932e-02	-1.016510e-02	-5.354223e-03
176           	-2.416306e-03	1.027337e+00	-1.471966e-02	-9.776138e-03	-4.943526e-03
177           	-2.432741e-03	1.030339e+00	-1.418105e-02	-9.523266e-03	-4.657785e-03
178           	-2.453576e-03	1.034608e+00	-1.374944e-02	-9.328296e-03	-4.421143e-03
179           	-2.475724e-03	1.039428e+00	-1.339793e-02	-9.174691e-03	-4.223243e-03
180           	-2.498258e-03	1.044451e+00	-1.338049e-02	-9.188505e-03	-4.191989e-03
181           	-2.518507e-03	1.049197e+00	-1.385224e-02	-9.444629e-03	-4.407615e-03
182           	-2.534057e-03	1.053196e+00	-1.493786e-02	-1.000299e-02	-4.934873e-03
183           	-2.541064e-03	1.055684e+00	-1.699495e-02	-1.103854e-02	-5.956413e-03
184           	-2.546697e-03	1.058047e+00	-2.032672e-02	-1.271006e-02	-7.616662e-03
185           	-2.545516e-03	1.058991e+00	-2.376067e-02	-1.442585e-02	-9.334820e-03
186           	-2.534553e-03	1.058171e+00	-2.627475e-02	-1.567193e-02	-1.060282e-02
187           	-2.517047e-03	1.056019e+00	-2.747850e-02	-1.625630e-02	-1.122220e-02
188           	-2.494441e-03	1.052495e+00	-2.740637e-02	-1.619763e-02	-1.120874e-02
189           	-2.470311e-03	1.048247e+00	-2.647511e-02	-1.570787e-02	-1.076724e-02
190           	-2.447203e-03	1.043619e+00	-2.503245e-02	-1.496343e-02	-1.006902e-02
191           	-2.426785e-03	1.038881e+00	-2.332162e-02	-1.408760e-02	-9.234026e-03
192           	-2.411244e-03	1.034400e+00	-2.147547e-02	-1.314898e-02	-8.326492e-03
193           	-2.401277e-03	1.030595e+00	-1.954669e-02	-1.217462e-02	-7.372066e-03
194           	-2.396850e-03	1.027506e+00	-1.761559e-02	-1.120464e-02	-6.410943e-03
195           	-2.399568e-03	1.026193e+00	-1.612832e-02	-1.046373e-02	-5.664589e-03
196           	-2.408502e-03	1.026554e+00	-1.520908e-02	-1.001304e-02	-5.196036e-03
197           	-2.421790e-03	1.028579e+00	-1.475757e-02	-9.800575e-03	-4.956996e-03
198           	-2.439368e-03	1.031983e+00	-1.442491e-02	-9.651825e-03	-4.773089e-03
199           	-2.460534e-03	1.036485e+00	-1.411632e-02	-9.518695e-03	-4.597627e-03
200           	-2.482342e-03	1.041322e+00	-1.382321e-02	-9.393948e-03	-4.429263e-03
201           	-2.503630e-03	1.046189e+00	-1.381071e-02	-9.408986e-03	-4.401725e-03
202           	-2.521905e-03	1.050620e+00	-1.425832e-02	-9.651063e-03	-4.607254e-03
203           	-2.534718e-03	1.054133e+00	-1.528655e-02	-1.017799e-02	-5.108557e-03
204           	-2.543610e-03	1.057059e+00	-1.727310e-02	-1.118016e-02	-6.092938e-03
205           	-2.548448e-03	1.059067e+00	-2.013153e-02	-1.261421e-02	-7.517318e-03
206           	-2.542579e-03	1.059051e+00	-2.292340e-02	-1.400428e-02	-8.919119e-03
207           	-2.528624e-03	1.057451e+00	-2.500508e-02	-1.503116e-02	-9.973915e-03
208           	-2.508565e-03	1.054672e+00	-2.605495e-02	-1.553604e-02	-1.051891e-02
209           	-2.486272e-03	1.050935e+00	-2.619520e-02	-1.558387e-02	-1.061133e-02
210           	-2.462201e-03	1.046528e+00	-2.555710e-02	-1.524075e-02	-1.031635e-02
211           	-2.438955e-03	1.041763e+00	-2.437973e-02	-1.462882e-02	-9.750912e-03
212           	-2.418531e-03	1.036968e+00	-2.279331e-02	-1.381519e-02	-8.978126e-03
213           	-2.404772e-03	1.032722e+00	-2.094203e-02	-1.287578e-02	-8.066241e-03
214           	-2.397701e-03	1.029435e+00	-1.895795e-02	-1.187667e-02	-7.081272e-03
215           	-2.396510e-03	1.027034e+00	-1.693952e-02	-1.086627e-02	-6.073248e-03
216           	-2.403063e-03	1.026651e+00	-1.549992e-02	-1.015302e-02	-5.346896e-03
217           	-2.414705e-03	1.027828e+00	-1.457659e-02	-9.702997e-03	-4.873588e-03
218           	-2.429928e-03	1.030452e+00	-1.402153e-02	-9.440695e-03	-4.580838e-03
219           	-2.449003e-03	1.034309e+00	-1.366106e-02	-9.279534e-03	-4.381529e-03
220           	-2.469612e-03	1.038784e+00	-1.335219e-02	-9.145709e-03	-4.206485e-03
221           	-2.490593e-03	1.043493e+00	-1.322920e-02	-9.105194e-03	-4.124007e-03
222           	-2.510070e-03	1.048078e+00	-1.343295e-02	-9.226546e-03	-4.206406e-03
223           	-2.525842e-03	1.052070e+00	-1.416544e-02	-9.608560e-03	-4.556877e-03
224           	-2.534341e-03	1.054766e+00	-1.575207e-02	-1.041038e-02	-5.341695e-03
225           	-2.540027e-03	1.057035e+00	-1.850210e-02	-1.179108e-02	-6.711024e-03
226           	-2.540556e-03	1.058190e+00	-2.167683e-02	-1.337897e-02	-8.297858e-03
227           	-2.532256e-03	1.057600e+00	-2.427908e-02	-1.467180e-02	-9.607286e-03
228           	-2.517096e-03	1.055692e+00	-2.582196e-02	-1.542807e-02	-1.039388e-02
229           	-2.496276e-03	1.052462e+00	-2.615171e-02	-1.557213e-02	-1.057958e-02
230           	-2.473897e-03	1.048601e+00	-2.559732e-02	-1.527256e-02	-1.032476e-02
231           	-2.452131e-03	1.044365e+00	-2.444643e-02	-1.467535e-02	-9.771086e-03
232           	-2.432407e-03	1.039945e+00	-2.291108e-02	-1.388795e-02	-9.023132e-03
233           	-2.416925e-03	1.035641e+00	-2.110948e-02	-1.297167e-02	-8.137817e-03
234           	-2.406657e-03	1.031902e+00	-1.913253e-02	-1.197292e-02	-7.159610e-03
235           	-2.401565e-03	1.028809e+00	-1.711295e-02	-1.095804e-02	-6.154909e-03
236           	-2.403794e-03	1.027455e+00	-1.561956e-02	-1.021357e-02	-5.405985e-03
237           	-2.411876e-03	1.027764e+00	-1.475133e-02	-9.787539e-03	-4.963787e-03
238           	-2.425449e-03	1.029770e+00	-1.449768e-02	-9.674290e-03	-4.823391e-03
239           	-2.442088e-03	1.032953e+00	-1.437912e-02	-9.631648e-03	-4.747471e-03
240           	-2.461077e-03	1.037010e+00	-1.422954e-02	-9.575849e-03	-4.653694e-03
241           	-2.480755e-03	1.041408e+00	-1.399068e-02	-9.476096e-03	-4.514587e-03
242           	-2.500173e-03	1.045884e+00	-1.391175e-02	-9.456049e-03	-4.455704e-03
243           	-2.517347e-03	1.050060e+00	-1.421023e-02	-9.622459e-03	-4.587766e-03
244           	-2.530063e-03	1.053471e+00	-1.507402e-02	-1.006707e-02	-5.006947e-03
245           	-2.539567e-03	1.056383e+00	-1.693245e-02	-1.100579e-02	-5.926659e-03
246           	-2.544980e-03	1.058357e+00	-1.969377e-02	-1.239187e-02	-7.301906e-03
247           	-2.539802e-03	1.058345e+00	-2.248302e-02	-1.378131e-02	-8.701706e-03
248           	-2.526902e-03	1.056821e+00	-2.461978e-02	-1.483679e-02	-9.782989e-03
249           	-2.507745e-03	1.054174e+00	-2.571799e-02	-1.536674e-02	-1.035125e-02
250           	-2.486715e-03	1.050680e+00	-2.587737e-02	-1.542540e-02	-1.045197e-02
251           	-2.463965e-03	1.046567e+00	-2.520211e-02	-1.506502e-02	-1.013709e-02
252           	-2.441837e-03	1.042098e+00	-2.392597e-02	-1.440482e-02	-9.521150e-03
253           	-2.422594e-03	1.037580e+00	-2.218846e-02	-1.351683e-02	-8.671639e-03
254           	-2.409196e-03	1.033464e+00	-2.010404e-02	-1.246122e-02	-7.642825e-03
255           	-2.401714e-03	1.030184e+00	-1.791839e-02	-1.136091e-02	-6.557480e-03
256           	-2.401684e-03	1.028032e+00	-1.589556e-02	-1.034946e-02	-5.546096e-03
257           	-2.408931e-03	1.027806e+00	-1.468759e-02	-9.752725e-03	-4.934864e-03
258           	-2.421674e-03	1.029189e+00	-1.422487e-02	-9.534111e-03	-4.690763e-03
259           	-2.437033e-03	1.031899e+00	-1.421554e-02	-9.544805e-03	-4.670739e-03
260           	-2.454460e-03	1.035517e+00	-1.430145e-02	-9.605186e-03	-4.696266e-03
261           	-2.472606e-03	1.039596e+00	-1.428606e-02	-9.615638e-03	-4.670426e-03
262           	-2.490780e-03	1.043856e+00	-1.428007e-02	-9.630815e-03	-4.649256e-03
263           	-2.507841e-03	1.048059e+00	-1.440977e-02	-9.712725e-03	-4.697042e-03
264           	-2.521952e-03	1.051764e+00	-1.492612e-02	-9.985011e-03	-4.941108e-03
265           	-2.530770e-03	1.054497e+00	-1.598608e-02	-1.052381e-02	-5.462270e-03
266           	-2.536479e-03	1.056732e+00	-1.770871e-02	-1.139083e-02	-6.317876e-03
267           	-2.537641e-03	1.057819e+00	-1.992258e-02	-1.249893e-02	-7.423651e-03
268           	-2.530367e-03	1.057153e+00	-2.212323e-02	-1.359198e-02	-8.531250e-03
269           	-2.516698e-03	1.055181e+00	-2.372395e-02	-1.437867e-02	-9.345277e-03
270           	-2.498335e-03	1.052281e+00	-2.445333e-02	-1.472500e-02	-9.728331e-03
271           	-2.478723e-03	1.048748e+00	-2.441634e-02	-1.468689e-02	-9.729445e-03
272           	-2.457142e-03	1.044615e+00	-2.366884e-02	-1.429156e-02	-9.377276e-03
273           	-2.436155e-03	1.040121e+00	-2.237023e-02	-1.362127e-02	-8.748958e-03
274           	-2.418834e-03	1.035732e+00	-2.059028e-02	-1.271398e-02	-7.876308e-03
275           	-2.407081e-03	1.031975e+00	-1.853448e-02	-1.167432e-02	-6.860161e-03
276           	-2.402838e-03	1.029218e+00	-1.647657e-02	-1.064112e-02	-5.835448e-03
277           	-2.406848e-03	1.028299e+00	-1.515163e-02	-9.982665e-03	-5.168969e-03
278           	-2.417310e-03	1.029093e+00	-1.461511e-02	-9.724864e-03	-4.890245e-03
279           	-2.431876e-03	1.031347e+00	-1.468575e-02	-9.774752e-03	-4.911000e-03
280           	-2.447756e-03	1.034438e+00	-1.485039e-02	-9.872952e-03	-4.977440e-03
281           	-2.464998e-03	1.038209e+00	-1.490025e-02	-9.915122e-03	-4.985126e-03
282           	-2.482699e-03	1.042255e+00	-1.473872e-02	-9.852057e-03	-4.886659e-03
283           	-2.499611e-03	1.046284e+00	-1.457148e-02	-9.785351e-03	-4.786130e-03
284           	-2.514291e-03	1.050002e+00	-1.464803e-02	-9.838304e-03	-4.809723e-03
285           	-2.525033e-03	1.052998e+00	-1.523753e-02	-1.014380e-02	-5.093734e-03
286           	-2.532820e-03	1.055419e+00	-1.694238e-02	-1.100401e-02	-5.938369e-03
287           	-2.536999e-03	1.056898e+00	-1.977852e-02	-1.242626e-02	-7.352261e-03
288           	-2.531280e-03	1.056601e+00	-2.269697e-02	-1.387977e-02	-8.817206e-03
289           	-2.519271e-03	1.055074e+00	-2.481446e-02	-1.492650e-02	-9.887961e-03
290           	-2.501590e-03	1.052620e+00	-2.575610e-02	-1.537964e-02	-1.037646e-02
291           	-2.482690e-03	1.049512e+00	-2.566985e-02	-1.531761e-02	-1.035223e-02
292           	-2.462249e-03	1.045845e+00	-2.467833e-02	-1.480141e-02	-9.876914e-03
293           	-2.442482e-03	1.041813e+00	-2.302549e-02	-1.395523e-02	-9.070264e-03
294           	-2.425926e-03	1.037739e+00	-2.084512e-02	-1.284848e-02	-7.996632e-03
295           	-2.414390e-03	1.034091e+00	-1.836340e-02	-1.159609e-02	-6.767312e-03
296           	-2.408894e-03	1.031341e+00	-1.603341e-02	-1.042560e-02	-5.607811e-03
297           	-2.411838e-03	1.029886e+00	-1.428641e-02	-9.555041e-03	-4.731365e-03
298           	-2.422191e-03	1.030309e+00	-1.371835e-02	-9.281364e-03	-4.436982e-03
299           	-2.435629e-03	1.032081e+00	-1.401474e-02	-9.442997e-03	-4.571740e-03
300           	-2.449951e-03	1.034750e+00	-1.471849e-02	-9.809195e-03	-4.909292e-03
301           	-2.464780e-03	1.038016e+00	-1.535430e-02	-1.014193e-02	-5.212371e-03
302           	-2.479678e-03	1.041549e+00	-1.565618e-02	-1.030777e-02	-5.348413e-03
303           	-2.493597e-03	1.045079e+00	-1.572026e-02	-1.035373e-02	-5.366535e-03
304           	-2.506124e-03	1.048491e+00	-1.570164e-02	-1.035695e-02	-5.344697e-03
305           	-2.516418e-03	1.051481e+00	-1.592865e-02	-1.048074e-02	-5.447905e-03
306           	-2.522500e-03	1.053585e+00	-1.663953e-02	-1.084226e-02	-5.797263e-03
307           	-2.526610e-03	1.055246e+00	-1.808555e-02	-1.156938e-02	-6.516162e-03
308           	-2.526987e-03	1.055886e+00	-2.012047e-02	-1.258722e-02	-7.533247e-03
309           	-2.519427e-03	1.055030e+00	-2.211657e-02	-1.357771e-02	-8.538860e-03
310           	-2.508394e-03	1.053290e+00	-2.356366e-02	-1.429023e-02	-9.273438e-03
311           	-2.491618e-03	1.050521e+00	-2.398917e-02	-1.448620e-02	-9.502967e-03
312           	-2.473002e-03	1.047250e+00	-2.359853e-02	-1.427226e-02	-9.326261e-03
313           	-2.454756e-03	1.043696e+00	-2.255017e-02	-1.372984e-02	-8.820328e-03
314           	-2.438570e-03	1.039973e+00	-2.094571e-02	-1.291143e-02	-8.034288e-03
315           	-2.425071e-03	1.036310e+00	-1.888713e-02	-1.186864e-02	-7.018494e-03
316           	-2.416253e-03	1.033254e+00	-1.678261e-02	-1.080756e-02	-5.975053e-03
317           	-2.414844e-03	1.031271e+00	-1.509779e-02	-9.963740e-03	-5.134053e-03
318           	-2.420350e-03	1.030935e+00	-1.454376e-02	-9.692229e-03	-4.851530e-03
319           	-2.431358e-03	1.032113e+00	-1.486350e-02	-9.863106e-03	-5.000389e-03
320           	-2.444219e-03	1.034376e+00	-1.556802e-02	-1.022823e-02	-5.339790e-03
321           	-2.457618e-03	1.037214e+00	-1.612510e-02	-1.052017e-02	-5.604933e-03
322           	-2.471945e-03	1.040537e+00	-1.630382e-02	-1.062386e-02	-5.679966e-03
323           	-2.486417e-03	1.044000e+00	-1.603819e-02	-1.050551e-02	-5.532676e-03
324           	-2.499387e-03	1.047305e+00	-1.554117e-02	-1.026997e-02	-5.271200e-03
325           	-2.510127e-03	1.050240e+00	-1.515315e-02	-1.008670e-02	-5.066450e-03
326           	-2.517523e-03	1.052448e+00	-1.527626e-02	-1.015566e-02	-5.120609e-03
327           	-2.523211e-03	1.054200e+00	-1.649099e-02	-1.076871e-02	-5.722286e-03
328           	-2.525931e-03	1.055152e+00	-1.861496e-02	-1.183341e-02	-6.781548e-03
329           	-2.520732e-03	1.054595e+00	-2.091498e-02	-1.297822e-02	-7.936756e-03
330           	-2.510720e-03	1.053079e+00	-2.281470e-02	-1.391807e-02	-8.896629e-03
331           	-2.495738e-03	1.050828e+00	-2.381050e-02	-1.440099e-02	-9.409512e-03
332           	-2.479738e-03	1.048091e+00	-2.387226e-02	-1.441587e-02	-9.456390e-03
333           	-2.461962e-03	1.044829e+00	-2.306319e-02	-1.399355e-02	-9.069631e-03
334           	-2.444714e-03	1.041251e+00	-2.152158e-02	-1.320550e-02	-8.316073e-03
335           	-2.429748e-03	1.037651e+00	-1.936966e-02	-1.211458e-02	-7.255083e-03
336           	-2.419619e-03	1.034558e+00	-1.701394e-02	-1.092659e-02	-6.087351e-03
337           	-2.417023e-03	1.032444e+00	-1.493254e-02	-9.883291e-03	-5.049245e-03
338           	-2.421336e-03	1.031869e+00	-1.413243e-02	-9.487553e-03	-4.644882e-03
339           	-2.431585e-03	1.032773e+00	-1.445401e-02	-9.658591e-03	-4.795421e-03
340           	-2.444282e-03	1.034763e+00	-1.539772e-02	-1.014314e-02	-5.254577e-03
341           	-2.457210e-03	1.037355e+00	-1.629589e-02	-1.060515e-02	-5.690734e-03
342           	-2.468997e-03	1.040105e+00	-1.668760e-02	-1.081280e-02	-5.874803e-03
343           	-2.481349e-03	1.043099e+00	-1.654577e-02	-1.075423e-02	-5.791534e-03
344           	-2.492339e-03	1.045980e+00	-1.599846e-02	-1.049157e-02	-5.506889e-03
345           	-2.502028e-03	1.048686e+00	-1.535244e-02	-1.017825e-02	-5.174193e-03
346           	-2.509999e-03	1.050951e+00	-1.508208e-02	-1.005104e-02	-5.031040e-03
347           	-2.517829e-03	1.052995e+00	-1.586323e-02	-1.044945e-02	-5.413789e-03
348           	-2.523701e-03	1.054377e+00	-1.783371e-02	-1.144055e-02	-6.393152e-03
349           	-2.521254e-03	1.054170e+00	-2.032899e-02	-1.268575e-02	-7.643243e-03
350           	-2.511366e-03	1.052817e+00	-2.264415e-02	-1.383344e-02	-8.810708e-03
351           	-2.497872e-03	1.050896e+00	-2.414402e-02	-1.456988e-02	-9.574137e-03
352           	-2.482960e-03	1.048489e+00	-2.449155e-02	-1.472874e-02	-9.762816e-03