# Residuals   
# Time        	p             	Ux            	Uy            	Uz            
1             	1.000000e+00	2.961590e-01	1.000000e+00	2.282680e-01
2             	1.385510e-01	5.797090e-01	2.981350e-01	6.056850e-01
3             	3.607240e-02	4.452280e-01	1.491500e-01	4.654400e-01
4             	5.096480e-02	3.083190e-01	9.507010e-02	3.083190e-01
5             	1.255230e-01	2.621110e-01	7.277150e-02	2.508780e-01
6             	1.621060e-01	2.241980e-01	5.791940e-02	2.012640e-01
7             	1.251250e-01	1.826140e-01	4.875220e-02	1.616270e-01
8             	1.098160e-01	1.434000e-01	4.169750e-02	1.371590e-01
9             	6.591470e-02	1.142630e-01	3.375110e-02	1.119450e-01
10            	5.188940e-02	1.003200e-01	2.717640e-02	9.196310e-02
11            	4.356230e-02	8.851070e-02	2.276400e-02	7.930890e-02
12            	4.008470e-02	7.775470e-02	1.960980e-02	6.903590e-02
13            	3.842780e-02	6.737130e-02	1.739700e-02	5.918440e-02
14            	3.805090e-02	5.950330e-02	1.584920e-02	5.223150e-02
15            	3.892920e-02	5.272660e-02	1.455790e-02	4.739110e-02
16            	4.043750e-02	4.708490e-02	1.322920e-02	4.296720e-02
17            	4.230190e-02	4.232290e-02	1.197040e-02	3.917490e-02
18            	4.401200e-02	3.811610e-02	1.086600e-02	3.603080e-02
19            	4.666430e-02	3.479930e-02	9.844560e-03	3.352810e-02
20            	4.820020e-02	3.215180e-02	8.911700e-03	3.146810e-02
21            	4.993280e-02	2.979950e-02	8.099830e-03	2.954530e-02
22            	5.254830e-02	2.787490e-02	7.407120e-03	2.789920e-02
23            	5.569560e-02	2.616810e-02	6.881290e-03	2.633050e-02
24            	5.387130e-02	2.472420e-02	6.557330e-03	2.499680e-02
25            	4.798940e-02	2.323520e-02	6.336610e-03	2.377590e-02
26            	4.436370e-02	2.194960e-02	6.103760e-03	2.275140e-02
27            	4.167760e-02	2.073930e-02	5.938080e-03	2.194430e-02
28            	3.972070e-02	1.965190e-02	5.722240e-03	2.129010e-02
29            	3.769800e-02	1.881620e-02	5.629240e-03	2.069510e-02
30            	3.602080e-02	1.822120e-02	5.579480e-03	2.019830e-02
31            	3.513500e-02	1.791880e-02	5.574360e-03	2.002600e-02
32            	3.447180e-02	1.787620e-02	5.533070e-03	1.996970e-02
33            	3.345160e-02	1.781800e-02	5.393010e-03	1.971050e-02
34            	3.214410e-02	1.763380e-02	5.212020e-03	1.906360e-02
35            	3.094610e-02	1.746340e-02	5.067760e-03	1.828360e-02
36            	3.006160e-02	1.732450e-02	4.967810e-03	1.763870e-02
37            	2.980940e-02	1.740080e-02	4.912770e-03	1.730690e-02
38            	2.993950e-02	1.745220e-02	4.905220e-03	1.712240e-02
39            	3.033280e-02	1.751670e-02	4.931160e-03	1.712860e-02
40            	3.103810e-02	1.753660e-02	4.930410e-03	1.729950e-02
41            	3.176490e-02	1.738780e-02	4.905240e-03	1.740840e-02
42            	3.137100e-02	1.715770e-02	4.782950e-03	1.730900e-02
43            	3.030230e-02	1.680610e-02	4.620960e-03	1.712850e-02
44            	2.911720e-02	1.652450e-02	4.443000e-03	1.689990e-02
45            	2.777800e-02	1.643270e-02	4.336690e-03	1.666430e-02
46            	2.626050e-02	1.636720e-02	4.288850e-03	1.644750e-02
47            	2.505470e-02	1.633850e-02	4.292370e-03	1.623480e-02
48            	2.455840e-02	1.645710e-02	4.291900e-03	1.603190e-02
49            	2.452190e-02	1.648820e-02	4.306410e-03	1.588210e-02
50            	2.467340e-02	1.658420e-02	4.377200e-03	1.597540e-02
51            	2.503880e-02	1.682570e-02	4.498600e-03	1.629340e-02
52            	2.572830e-02	1.720820e-02	4.630360e-03	1.680640e-02
53            	2.629840e-02	1.793740e-02	4.742480e-03	1.704160e-02
54            	2.646950e-02	1.897350e-02	4.877600e-03	1.723910e-02
55            	2.599730e-02	2.007740e-02	5.030930e-03	1.725080e-02
56            	2.532820e-02	2.058330e-02	5.030270e-03	1.695500e-02
57            	2.502040e-02	2.094760e-02	5.071610e-03	1.693250e-02
58            	2.550340e-02	2.108360e-02	5.018210e-03	1.707600e-02
59            	2.594730e-02	2.113900e-02	5.072450e-03	1.711200e-02
60            	2.698380e-02	2.152800e-02	5.096620e-03	1.772060e-02
61            	2.819350e-02	2.242750e-02	5.199500e-03	1.902370e-02
62            	2.888290e-02	2.353870e-02	5.355050e-03	2.033420e-02
63            	2.936910e-02	2.488570e-02	5.615480e-03	2.128110e-02
64            	3.005000e-02	2.647070e-02	5.931880e-03	2.214450e-02
65            	3.057390e-02	2.816180e-02	6.271210e-03	2.278810e-02
66            	3.114590e-02	2.996820e-02	6.639070e-03	2.373620e-02
67            	3.237190e-02	3.162500e-02	7.033730e-03	2.482120e-02
68            	3.359030e-02	3.268140e-02	7.255200e-03	2.602930e-02
69            	3.480200e-02	3.325320e-02	7.458620e-03	2.701880e-02
70            	3.648670e-02	3.380750e-02	7.610160e-03	2.823410e-02
71            	3.721040e-02	3.357980e-02	7.864240e-03	2.954590e-02
72            	3.753360e-02	3.332420e-02	7.965280e-03	3.056010e-02
73            	3.858740e-02	3.273990e-02	8.020440e-03	3.106070e-02
74            	3.874390e-02	3.245300e-02	8.079920e-03	3.109200e-02
75            	3.740000e-02	3.149240e-02	7.899820e-03	3.030070e-02
76            	3.554500e-02	3.015410e-02	7.559980e-03	2.810290e-02
77            	3.430150e-02	2.866810e-02	7.165470e-03	2.603260e-02
78            	3.400030e-02	2.702350e-02	6.648260e-03	2.426990e-02
79            	3.426830e-02	2.541170e-02	6.139040e-03	2.260820e-02
80            	3.434440e-02	2.396110e-02	5.643080e-03	2.114310e-02
81            	3.397030e-02	2.281010e-02	5.379460e-03	2.019120e-02
82            	3.268520e-02	2.198500e-02	5.165320e-03	1.955990e-02
83            	3.072590e-02	2.132950e-02	4.904350e-03	1.898970e-02
84            	2.877460e-02	2.103620e-02	4.659470e-03	1.840120e-02
85            	2.701720e-02	2.088850e-02	4.493400e-03	1.789580e-02
86            	2.581220e-02	2.053350e-02	4.377380e-03	1.745230e-02
87            	2.510010e-02	2.044700e-02	4.407060e-03	1.723380e-02
88            	2.494820e-02	2.074840e-02	4.508090e-03	1.734170e-02
89            	2.567700e-02	2.153860e-02	4.644880e-03	1.793970e-02
90            	2.750680e-02	2.261910e-02	4.797060e-03	1.880070e-02
91            	2.969750e-02	2.345080e-02	5.052830e-03	1.998320e-02
92            	3.170820e-02	2.379330e-02	5.256230e-03	2.100080e-02
93            	3.303270e-02	2.365260e-02	5.281540e-03	2.140930e-02
94            	3.287980e-02	2.394370e-02	5.292360e-03	2.153280e-02
95            	3.210140e-02	2.444740e-02	5.325190e-03	2.098800e-02
96            	3.019970e-02	2.505940e-02	5.443290e-03	2.013310e-02
97            	2.902910e-02	2.561350e-02	5.571640e-03	1.964350e-02
98            	2.889380e-02	2.585050e-02	5.735500e-03	1.958820e-02
99            	3.011480e-02	2.535580e-02	5.659520e-03	1.953550e-02
100           	3.079060e-02	2.450760e-02	5.614580e-03	1.923360e-02
101           	3.171850e-02	2.386470e-02	5.482250e-03	1.939560e-02
102           	3.247270e-02	2.363680e-02	5.389460e-03	1.992670e-02
103           	3.240610e-02	2.396860e-02	5.411070e-03	2.055850e-02
104           	3.173190e-02	2.475060e-02	5.576820e-03	2.084540e-02
105           	3.117050e-02	2.596840e-02	5.907220e-03	2.123290e-02
106           	3.145470e-02	2.818480e-02	6.333260e-03	2.237050e-02
107           	3.265250e-02	3.067340e-02	6.909060e-03	2.383790e-02
108           	3.537940e-02	3.298140e-02	7.562340e-03	2.556460e-02
109           	3.732420e-02	3.500640e-02	8.178280e-03	2.730880e-02
110           	3.900300e-02	3.634270e-02	8.592540e-03	2.876380e-02
111           	4.048080e-02	3.727450e-02	8.744390e-03	3.041390e-02
112           	4.183360e-02	3.766690e-02	8.707390e-03	3.196530e-02
113           	4.258800e-02	3.670950e-02	8.615960e-03	3.271100e-02
114           	4.258370e-02	3.608730e-02	8.651570e-03	3.283530e-02
115           	4.205030e-02	3.630650e-02	8.746790e-03	3.275790e-02
116           	4.135960e-02	3.739000e-02	8.856210e-03	3.299530e-02
117           	4.038180e-02	3.815690e-02	8.855050e-03	3.291330e-02
118           	3.935040e-02	3.805360e-02	8.761100e-03	3.178590e-02
119           	3.854790e-02	3.750360e-02	8.711490e-03	3.054700e-02
120           	3.870200e-02	3.604720e-02	8.493990e-03	2.933480e-02
121           	4.012050e-02	3.501140e-02	8.250610e-03	2.857150e-02
122           	4.286300e-02	3.489470e-02	8.273750e-03	2.865040e-02
123           	4.449980e-02	3.473390e-02	8.372810e-03	2.927430e-02
124           	4.532480e-02	3.420780e-02	8.197260e-03	2.870790e-02
125           	4.376300e-02	3.328260e-02	7.835300e-03	2.724020e-02
126           	4.107950e-02	3.269370e-02	7.490580e-03	2.577820e-02
127           	3.899180e-02	3.188130e-02	7.259600e-03	2.488120e-02
128           	3.821460e-02	3.180490e-02	7.287810e-03	2.493120e-02
129           	3.969710e-02	3.166930e-02	7.394150e-03	2.521240e-02
130           	4.136870e-02	3.136940e-02	7.395960e-03	2.513570e-02
131           	4.272320e-02	3.153780e-02	7.382190e-03	2.537390e-02
132           	4.230190e-02	3.112360e-02	7.187750e-03	2.565890e-02
133           	4.083090e-02	3.044240e-02	7.016770e-03	2.566440e-02
134           	3.936110e-02	3.037300e-02	7.002400e-03	2.579860e-02
135           	3.806290e-02	3.132320e-02	7.124160e-03	2.667710e-02
136           	3.801160e-02	3.301570e-02	7.415560e-03	2.782140e-02
137           	3.840470e-02	3.465410e-02	7.739100e-03	2.826410e-02
138           	3.885060e-02	3.577670e-02	8.025310e-03	2.867370e-02
139           	4.003970e-02	3.581930e-02	8.222080e-03	2.852330e-02
140           	4.051870e-02	3.605890e-02	8.244180e-03	2.947610e-02
141           	4.073120e-02	3.564870e-02	8.096830e-03	3.018630e-02
142           	4.125960e-02	3.503580e-02	8.081420e-03	3.078800e-02
143           	4.145150e-02	3.507450e-02	8.226720e-03	3.183130e-02
144           	4.111340e-02	3.450860e-02	8.334200e-03	3.145580e-02
145           	4.070570e-02	3.509780e-02	8.418750e-03	3.137270e-02
146           	4.178490e-02	3.670670e-02	8.650190e-03	3.205860e-02
147           	4.293390e-02	3.806070e-02	8.853590e-03	3.266400e-02
148           	4.236310e-02	3.899950e-02	8.915830e-03	3.243650e-02
149           	4.130300e-02	3.902360e-02	8.877760e-03	3.146700e-02
150           	4.155700e-02	3.880640e-02	8.852390e-03	3.140580e-02
151           	4.383480e-02	3.817830e-02	8.762610e-03	3.161760e-02
152           	4.512150e-02	3.688070e-02	8.570700e-03	3.048530e-02
153           	4.489280e-02	3.542630e-02	8.292560e-03	2.889300e-02
154           	4.369070e-02	3.394620e-02	7.844280e-03	2.719530e-02
155           	4.232380e-02	3.260370e-02	7.422230e-03	2.569720e-02
156           	4.131240e-02	3.167360e-02	7.089110e-03	2.452580e-02
157           	4.060180e-02	3.069940e-02	6.853100e-03	2.391320e-02
158           	4.028860e-02	2.983630e-02	6.701210e-03	2.371000e-02
159           	4.078080e-02	2.912150e-02	6.655890e-03	2.372410e-02
160           	4.166000e-02	2.880710e-02	6.627310e-03	2.409040e-02
161           	4.120390e-02	2.862000e-02	6.500200e-03	2.482570e-02
162           	4.015450e-02	2.890020e-02	6.509390e-03	2.522230e-02
163           	3.946410e-02	2.961880e-02	6.716140e-03	2.595840e-02
164           	3.913780e-02	3.052830e-02	7.055030e-03	2.669080e-02
165           	3.921910e-02	3.188720e-02	7.469970e-03	2.785890e-02
166           	3.896080e-02	3.367190e-02	7.927050e-03	2.891330e-02
167           	3.882760e-02	3.517140e-02	8.237470e-03	2.933460e-02
168           	3.874430e-02	3.571560e-02	8.372910e-03	2.921990e-02
169           	3.879730e-02	3.549430e-02	8.299510e-03	2.937240e-02
170           	3.885420e-02	3.472840e-02	8.105050e-03	2.941760e-02
171           	3.851970e-02	3.425050e-02	8.024760e-03	2.953330e-02
172           	3.948040e-02	3.392110e-02	8.200680e-03	3.037990e-02
173           	3.944620e-02	3.364760e-02	8.281110e-03	3.141630e-02
174           	3.965050e-02	3.340340e-02	8.337340e-03	3.138370e-02
175           	4.006320e-02	3.344050e-02	8.498810e-03	3.110670e-02
176           	3.992160e-02	3.378370e-02	8.541560e-03	3.066470e-02
177           	3.951730e-02	3.390590e-02	8.423570e-03	2.963460e-02
178           	3.898220e-02	3.350790e-02	8.306970e-03	2.845130e-02
179           	3.813090e-02	3.305990e-02	8.075460e-03	2.747320e-02
180           	3.772090e-02	3.153710e-02	7.721530e-03	2.593930e-02
181           	3.801760e-02	2.974710e-02	7.245030e-03	2.465190e-02
182           	3.815300e-02	2.806880e-02	6.744640e-03	2.346760e-02
183           	3.727630e-02	2.628240e-02	6.244410e-03	2.175510e-02
184           	3.584920e-02	2.502130e-02	5.877050e-03	2.028370e-02
185           	3.500010e-02	2.451980e-02	5.643900e-03	1.956620e-02
186           	3.507970e-02	2.479680e-02	5.538750e-03	1.965360e-02
187           	3.471940e-02	2.515270e-02	5.572590e-03	2.013440e-02
188           	3.387790e-02	2.508320e-02	5.599900e-03	2.056340e-02
189           	3.364360e-02	2.529330e-02	5.712800e-03	2.124840e-02
190           	3.353250e-02	2.622590e-02	5.951120e-03	2.221530e-02
191           	3.377590e-02	2.752580e-02	6.279940e-03	2.317180e-02
192           	3.424720e-02	2.916850e-02	6.719480e-03	2.455890e-02
193           	3.462990e-02	3.109310e-02	7.307580e-03	2.593470e-02
194           	3.486020e-02	3.270870e-02	7.692510e-03	2.709930e-02
195           	3.557290e-02	3.383190e-02	7.890910e-03	2.824570e-02
196           	3.665730e-02	3.399520e-02	7.852180e-03	2.907380e-02
197           	3.794210e-02	3.366990e-02	7.841880e-03	2.953960e-02
198           	3.880540e-02	3.375830e-02	8.007560e-03	3.038520e-02
199           	3.866980e-02	3.368930e-02	8.302780e-03	3.159710e-02
200           	3.891430e-02	3.392310e-02	8.517720e-03	3.160390e-02
201           	3.961860e-02	3.458670e-02	8.751390e-03	3.188260e-02
202           	3.962060e-02	3.538930e-02	8.883600e-03	3.217730e-02
203           	3.827390e-02	3.553140e-02	8.716770e-03	3.079760e-02
204           	3.758900e-02	3.509130e-02	8.498880e-03	2.918530e-02
205           	3.700500e-02	3.419700e-02	8.236310e-03	2.813440e-02
206           	3.696990e-02	3.299860e-02	7.791090e-03	2.718120e-02
207           	3.830320e-02	3.138560e-02	7.331610e-03	2.611490e-02
208           	3.884190e-02	2.968690e-02	6.864430e-03	2.461600e-02
209           	3.825990e-02	2.794220e-02	6.283380e-03	2.259550e-02
210           	3.661400e-02	2.672100e-02	5.875600e-03	2.073560e-02
211           	3.451980e-02	2.580950e-02	5.683510e-03	1.964400e-02
212           	3.284850e-02	2.517570e-02	5.616770e-03	1.888240e-02
213           	3.185820e-02	2.479580e-02	5.631090e-03	1.879890e-02
214           	3.264190e-02	2.451750e-02	5.627180e-03	1.939520e-02
215           	3.379250e-02	2.420540e-02	5.536790e-03	2.015430e-02
216           	3.361800e-02	2.397990e-02	5.460920e-03	2.060300e-02
217           	3.277400e-02	2.428210e-02	5.511340e-03	2.097380e-02
218           	3.155640e-02	2.485440e-02	5.709940e-03	2.128790e-02
219           	3.085750e-02	2.596130e-02	6.059810e-03	2.191690e-02
220           	3.074830e-02	2.807700e-02	6.552160e-03	2.306220e-02
221           	3.132170e-02	3.016900e-02	7.029260e-03	2.409880e-02
222           	3.228130e-02	3.120830e-02	7.336460e-03	2.478810e-02
223           	3.350710e-02	3.215640e-02	7.544020e-03	2.589240e-02
224           	3.458400e-02	3.229700e-02	7.617070e-03	2.684820e-02
225           	3.613260e-02	3.224950e-02	7.678310e-03	2.766730e-02
226           	3.683900e-02	3.177530e-02	7.701980e-03	2.816380e-02
227           	3.620340e-02	3.120190e-02	7.658100e-03	2.786810e-02
228           	3.569760e-02	3.122610e-02	7.727790e-03	2.746220e-02
229           	3.515670e-02	3.178900e-02	7.783280e-03	2.711660e-02
230           	3.457630e-02	3.277480e-02	7.829130e-03	2.661700e-02
231           	3.347430e-02	3.402800e-02	7.826500e-03	2.593590e-02
232           	3.293150e-02	3.480070e-02	7.893710e-03	2.580460e-02
233           	3.417040e-02	3.429400e-02	7.904340e-03	2.557860e-02
234           	3.628270e-02	3.330490e-02	7.676120e-03	2.545330e-02
235           	3.658810e-02	3.153080e-02	7.240290e-03	2.467810e-02
236           	3.605230e-02	2.964320e-02	6.741910e-03	2.352490e-02
237           	3.480130e-02	2.801300e-02	6.233960e-03	2.169160e-02
238           	3.334950e-02	2.727840e-02	5.884420e-03	2.057220e-02
239           	3.167810e-02	2.679390e-02	5.739120e-03	1.984220e-02
240           	3.035310e-02	2.651330e-02	5.691230e-03	1.947700e-02
241           	2.963070e-02	2.591430e-02	5.730620e-03	1.919410e-02
242           	2.946260e-02	2.525040e-02	5.806480e-03	1.903550e-02
243           	3.063970e-02	2.514000e-02	5.802810e-03	1.939670e-02
244           	3.168590e-02	2.519060e-02	5.717210e-03	2.010720e-02
245           	3.146610e-02	2.481050e-02	5.597790e-03	2.034100e-02
246           	3.050190e-02	2.410980e-02	5.486330e-03	2.048320e-02
247           	2.931530e-02	2.353570e-02	5.398080e-03	2.029180e-02
248           	2.826440e-02	2.333420e-02	5.341810e-03	2.022650e-02
249           	2.746760e-02	2.410280e-02	5.392670e-03	2.053960e-02
250           	2.662480e-02	2.497510e-02	5.580400e-03	2.066950e-02
251           	2.598450e-02	2.602560e-02	5.790460e-03	2.103450e-02
252           	2.613660e-02	2.698910e-02	5.937930e-03	2.122680e-02
253           	2.736670e-02	2.770450e-02	6.081840e-03	2.149980e-02
254           	2.897760e-02	2.836380e-02	6.287420e-03	2.223930e-02
255           	2.996280e-02	2.808710e-02	6.424070e-03	2.248070e-02
256           	3.003420e-02	2.702940e-02	6.292360e-03	2.239740e-02
257           	2.957800e-02	2.544620e-02	6.019630e-03	2.202210e-02
258           	2.859890e-02	2.423140e-02	5.695880e-03	2.122100e-02
259           	2.717730e-02	2.349960e-02	5.424900e-03	1.996930e-02
260           	2.522690e-02	2.277460e-02	5.135710e-03	1.837200e-02
261           	2.340890e-02	2.240360e-02	4.944120e-03	1.708920e-02
262           	2.297990e-02	2.217930e-02	4.835980e-03	1.620180e-02
263           	2.325850e-02	2.168560e-02	4.724740e-03	1.568610e-02
264           	2.417200e-02	2.099780e-02	4.601210e-03	1.520150e-02
265           	2.440250e-02	2.012170e-02	4.481690e-03	1.467660e-02
266           	2.407160e-02	1.949930e-02	4.273120e-03	1.432640e-02
267           	2.355720e-02	1.858000e-02	3.953220e-03	1.408660e-02
268           	2.267900e-02	1.753790e-02	3.622230e-03	1.387890e-02
269           	2.115760e-02	1.627240e-02	3.258380e-03	1.311060e-02
270           	1.935920e-02	1.505270e-02	2.953900e-03	1.222730e-02
271           	1.758890e-02	1.404430e-02	2.771480e-03	1.138070e-02
272           	1.612230e-02	1.353320e-02	2.721270e-03	1.083350e-02
273           	1.495480e-02	1.324050e-02	2.752150e-03	1.052990e-02
274           	1.417490e-02	1.315500e-02	2.820950e-03	1.030250e-02
275           	1.388320e-02	1.309570e-02	2.877960e-03	1.015850e-02
276           	1.409810e-02	1.316560e-02	2.881540e-03	1.008020e-02
277           	1.449630e-02	1.302800e-02	2.817290e-03	9.834490e-03
278           	1.472540e-02	1.280930e-02	2.668510e-03	9.617770e-03
279           	1.475020e-02	1.237970e-02	2.479600e-03	9.410650e-03
280           	1.453040e-02	1.171090e-02	2.283620e-03	9.105270e-03
281           	1.392960e-02	1.089790e-02	2.110760e-03	8.690050e-03
282           	1.328300e-02	1.023260e-02	1.980620e-03	8.404950e-03
283           	1.250040e-02	9.800040e-03	1.916570e-03	8.156720e-03
284           	1.170310e-02	9.622810e-03	1.905690e-03	7.946530e-03
285           	1.091530e-02	9.532300e-03	1.931820e-03	7.746900e-03
286           	1.017440e-02	9.410240e-03	1.987140e-03	7.545620e-03
287           	9.814600e-03	9.260650e-03	2.015170e-03	7.352000e-03
288           	9.970700e-03	9.068060e-03	1.982680e-03	7.119250e-03
289           	1.011840e-02	8.780650e-03	1.901860e-03	6.899570e-03
290           	1.015870e-02	8.316830e-03	1.782840e-03	6.599100e-03
291           	1.000060e-02	7.862450e-03	1.640380e-03	6.305800e-03
292           	9.710350e-03	7.387800e-03	1.489480e-03	6.103100e-03
293           	9.214550e-03	6.872020e-03	1.357290e-03	5.802210e-03
294           	8.628100e-03	6.391610e-03	1.266410e-03	5.485720e-03
295           	8.068960e-03	6.037530e-03	1.214110e-03	5.161870e-03
296           	7.501010e-03	5.896060e-03	1.203710e-03	4.899550e-03
297           	7.017940e-03	5.841000e-03	1.240070e-03	4.733560e-03
298           	6.689050e-03	5.857610e-03	1.291680e-03	4.693350e-03
299           	6.507950e-03	5.926300e-03	1.329690e-03	4.703370e-03
300           	6.617530e-03	6.000120e-03	1.346050e-03	4.720550e-03
301           	6.874920e-03	6.021570e-03	1.334780e-03	4.726680e-03
302           	7.037980e-03	5.967680e-03	1.294530e-03	4.685190e-03
303           	7.085630e-03	5.740440e-03	1.217170e-03	4.514790e-03
304           	6.978300e-03	5.430500e-03	1.114560e-03	4.283160e-03
305           	6.711700e-03	5.003430e-03	9.975780e-04	4.017050e-03
306           	6.340050e-03	4.523580e-03	8.841200e-04	3.725170e-03
307           	5.894360e-03	4.100760e-03	7.961690e-04	3.435150e-03
308           	5.448870e-03	3.795920e-03	7.307200e-04	3.156830e-03
309           	4.996260e-03	3.600600e-03	6.869800e-04	2.938660e-03
310           	4.585250e-03	3.466230e-03	6.770040e-04	2.798330e-03
311           	4.265350e-03	3.385300e-03	6.876300e-04	2.733220e-03
312           	4.077810e-03	3.342520e-03	6.947840e-04	2.681620e-03
313           	3.984550e-03	3.294750e-03	6.925770e-04	2.638560e-03
314           	3.966050e-03	3.239820e-03	6.788010e-04	2.594440e-03
315           	3.961630e-03	3.162130e-03	6.514880e-04	2.532660e-03
316           	3.919850e-03	3.034330e-03	6.141000e-04	2.450620e-03
317           	3.837170e-03	2.870050e-03	5.739940e-04	2.362680e-03
318           	3.715830e-03	2.677470e-03	5.373920e-04	2.260310e-03
319           	3.570120e-03	2.487510e-03	5.081590e-04	2.156060e-03
320           	3.423300e-03	2.344850e-03	4.886050e-04	2.051000e-03
321           	3.288250e-03	2.243970e-03	4.813050e-04	1.953700e-03
322           	3.174560e-03	2.173370e-03	4.849870e-04	1.883020e-03
323           	3.064060e-03	2.128200e-03	4.901410e-04	1.847850e-03
324           	2.971580e-03	2.107800e-03	4.929360e-04	1.836230e-03
325           	2.908200e-03	2.091000e-03	4.916740e-04	1.832620e-03
326           	2.895270e-03	2.076430e-03	4.843040e-04	1.819150e-03
327           	2.894610e-03	2.053860e-03	4.715800e-04	1.798250e-03
328           	2.881060e-03	2.012370e-03	4.547690e-04	1.765790e-03
329           	2.848390e-03	1.951820e-03	4.351920e-04	1.723610e-03
330           	2.796880e-03	1.874160e-03	4.143610e-04	1.668260e-03
331           	2.727750e-03	1.789770e-03	3.937800e-04	1.606720e-03
332           	2.648210e-03	1.700790e-03	3.754550e-04	1.548070e-03
333           	2.560880e-03	1.620200e-03	3.608670e-04	1.493300e-03
334           	2.468090e-03	1.558960e-03	3.501350e-04	1.445990e-03
335           	2.374510e-03	1.514560e-03	3.419540e-04	1.407740e-03
336           	2.286760e-03	1.482990e-03	3.356820e-04	1.381170e-03
337           	2.209070e-03	1.462120e-03	3.305810e-04	1.358250e-03
338           	2.149190e-03	1.446940e-03	3.259350e-04	1.337570e-03
339           	2.115500e-03	1.432910e-03	3.214680e-04	1.317940e-03
340           	2.102440e-03	1.417920e-03	3.164230e-04	1.297340e-03
341           	2.094290e-03	1.397400e-03	3.102030e-04	1.274120e-03
342           	2.087870e-03	1.378390e-03	3.033760e-04	1.251310e-03
343           	2.078680e-03	1.356280e-03	2.961940e-04	1.227060e-03
344           	2.069730e-03	1.332390e-03	2.887840e-04	1.200970e-03
345           	2.054720e-03	1.318560e-03	2.817100e-04	1.181040e-03
346           	2.032820e-03	1.294130e-03	2.743110e-04	1.157260e-03
347           	2.007350e-03	1.263310e-03	2.669400e-04	1.129630e-03
348           	1.977940e-03	1.228680e-03	2.595860e-04	1.101700e-03
349           	1.943860e-03	1.192500e-03	2.521940e-04	1.073760e-03
350           	1.905950e-03	1.156720e-03	2.447000e-04	1.045870e-03
351           	1.865360e-03	1.121250e-03	2.376460e-04	1.018880e-03
352           	1.821610e-03	1.086490e-03	2.310330e-04	9.922130e-04
353           	1.774710e-03	1.052990e-03	2.242210e-04	9.665880e-04
354           	1.726370e-03	1.021130e-03	2.176790e-04	9.418270e-04
355           	1.676820e-03	9.903150e-04	2.113770e-04	9.179150e-04
356           	1.629770e-03	9.599720e-04	2.054380e-04	8.943560e-04
357           	1.581760e-03	9.313540e-04	2.004830e-04	8.674640e-04
358           	1.534310e-03	9.047870e-04	1.954240e-04	8.437310e-04
359           	1.488370e-03	8.794380e-04	1.906310e-04	8.218780e-04
360           	1.443220e-03	8.546640e-04	1.862240e-04	8.015810e-04
361           	1.396890e-03	8.302240e-04	1.822150e-04	7.826230e-04
362           	1.352750e-03	8.019890e-04	1.785840e-04	7.599310e-04
363           	1.310630e-03	7.777820e-04	1.755170e-04	7.403030e-04
364           	1.270510e-03	7.563380e-04	1.727430e-04	7.231080e-04
365           	1.233320e-03	7.360350e-04	1.702520e-04	7.083880e-04
366           	1.198450e-03	7.173440e-04	1.679860e-04	6.958690e-04
367           	1.166460e-03	6.996390e-04	1.659060e-04	6.843410e-04
368           	1.137450e-03	6.834400e-04	1.639520e-04	6.738370e-04
369           	1.110800e-03	6.680240e-04	1.620720e-04	6.643920e-04
370           	1.086090e-03	6.544760e-04	1.602930e-04	6.558390e-04
371           	1.064260e-03	6.429870e-04	1.585450e-04	6.478930e-04
372           	1.044000e-03	6.338690e-04	1.567930e-04	6.407150e-04
373           	1.025260e-03	6.272130e-04	1.550600e-04	6.342420e-04
374           	1.008650e-03	6.226050e-04	1.534020e-04	6.279720e-04
375           	9.934810e-04	6.201430e-04	1.518180e-04	6.223810e-04
376           	9.805910e-04	6.195640e-04	1.503260e-04	6.174000e-04
377           	9.697980e-04	6.205100e-04	1.489960e-04	6.135130e-04
378           	9.614100e-04	6.233090e-04	1.478850e-04	6.106430e-04
379           	9.558670e-04	6.277770e-04	1.469290e-04	6.086660e-04
380           	9.539400e-04	6.332770e-04	1.462050e-04	6.080550e-04
381           	9.546680e-04	6.397960e-04	1.457450e-04	6.086920e-04
382           	9.571160e-04	6.468640e-04	1.455100e-04	6.105340e-04
383           	9.605540e-04	6.541910e-04	1.454690e-04	6.134180e-04
384           	9.654170e-04	6.611780e-04	1.454590e-04	6.168080e-04
385           	9.718020e-04	6.676460e-04	1.455360e-04	6.201960e-04
386           	9.807700e-04	6.738230e-04	1.457210e-04	6.233480e-04
387           	9.896510e-04	6.859140e-04	1.463870e-04	6.318040e-04
388           	9.983590e-04	6.943290e-04	1.469140e-04	6.384340e-04
389           	1.006860e-03	6.995680e-04	1.473780e-04	6.429710e-04
390           	1.014570e-03	7.025040e-04	1.477650e-04	6.455100e-04
391           	1.021870e-03	7.044700e-04	1.481040e-04	6.477260e-04
392           	1.028550e-03	7.051150e-04	1.483500e-04	6.497670e-04
393           	1.034530e-03	7.050630e-04	1.485120e-04	6.508030e-04
394           	1.039810e-03	7.049040e-04	1.485620e-04	6.515880e-04
395           	1.044760e-03	7.041090e-04	1.485100e-04	6.522730e-04
396           	1.048570e-03	7.022990e-04	1.483270e-04	6.524250e-04
397           	1.051450e-03	6.998990e-04	1.480090e-04	6.522100e-04
398           	1.053170e-03	6.970100e-04	1.476500e-04	6.513260e-04
399           	1.054000e-03	6.937480e-04	1.472860e-04	6.505120e-04
400           	1.054170e-03	6.900240e-04	1.468470e-04	6.491950e-04
401           	1.053330e-03	6.857200e-04	1.464550e-04	6.482300e-04
402           	1.051560e-03	6.817410e-04	1.460660e-04	6.477590e-04
403           	1.046410e-03	6.777040e-04	1.457410e-04	6.469280e-04
404           	1.042360e-03	6.674830e-04	1.451190e-04	6.414760e-04
405           	1.037060e-03	6.656820e-04	1.451100e-04	6.417070e-04
406           	1.031010e-03	6.640160e-04	1.451360e-04	6.420590e-04
407           	1.022410e-03	6.614910e-04	1.451240e-04	6.419630e-04
408           	1.015830e-03	6.530360e-04	1.446770e-04	6.366080e-04
409           	1.008800e-03	6.524260e-04	1.446600e-04	6.363210e-04
410           	1.001920e-03	6.519850e-04	1.446370e-04	6.361790e-04
411           	9.952790e-04	6.506160e-04	1.445840e-04	6.358050e-04
412           	9.885220e-04	6.487270e-04	1.444900e-04	6.348970e-04
413           	9.820010e-04	6.463870e-04	1.443300e-04	6.336450e-04
414           	9.757720e-04	6.436290e-04	1.440800e-04	6.316390e-04
415           	9.700410e-04	6.414110e-04	1.439520e-04	6.304550e-04
416           	9.784350e-04	6.492930e-04	1.492710e-04	6.572550e-04
417           	9.704970e-04	6.625320e-04	1.490780e-04	6.968350e-04
418           	9.603000e-04	6.458630e-04	1.461020e-04	6.388410e-04
419           	9.634930e-04	6.443000e-04	1.467290e-04	6.470690e-04
420           	9.863370e-04	6.584530e-04	1.513180e-04	6.790000e-04
421           	1.021110e-03	6.880780e-04	1.610620e-04	7.225900e-04
422           	1.112400e-03	7.414020e-04	1.842370e-04	7.834900e-04
423           	1.183150e-03	8.052240e-04	2.057280e-04	8.670470e-04
424           	1.240790e-03	8.852210e-04	2.261060e-04	9.414460e-04
425           	1.313950e-03	9.644880e-04	2.538400e-04	1.009400e-03
426           	1.391330e-03	1.049130e-03	2.774340e-04	1.077940e-03
427           	1.471430e-03	1.131960e-03	3.027620e-04	1.154890e-03
428           	1.547330e-03	1.217000e-03	3.296840e-04	1.248470e-03
429           	1.621240e-03	1.292390e-03	3.559070e-04	1.341350e-03
430           	1.691630e-03	1.370910e-03	3.817300e-04	1.438840e-03
431           	1.761370e-03	1.442960e-03	4.056300e-04	1.539160e-03
432           	1.840890e-03	1.508720e-03	4.267320e-04	1.636030e-03
433           	1.923600e-03	1.565750e-03	4.416160e-04	1.715060e-03
434           	2.003400e-03	1.608420e-03	4.502850e-04	1.768170e-03
435           	2.079210e-03	1.637510e-03	4.523210e-04	1.792040e-03
436           	2.146010e-03	1.656920e-03	4.504360e-04	1.791930e-03
437           	2.197660e-03	1.665610e-03	4.469840e-04	1.773120e-03
438           	2.232080e-03	1.660010e-03	4.385900e-04	1.739370e-03
439           	2.244300e-03	1.637920e-03	4.252990e-04	1.695700e-03
440           	2.236860e-03	1.605340e-03	4.091570e-04	1.648740e-03
441           	2.209560e-03	1.562110e-03	3.914240e-04	1.598360e-03
442           	2.164290e-03	1.506830e-03	3.721250e-04	1.540370e-03
443           	2.106760e-03	1.444600e-03	3.529170e-04	1.474720e-03
444           	2.046260e-03	1.377750e-03	3.333510e-04	1.405550e-03
445           	1.983910e-03	1.306720e-03	3.144220e-04	1.332700e-03
446           	1.922780e-03	1.235100e-03	2.959490e-04	1.259750e-03