# Force coefficients
# liftDir     : (0.000000e+00 0.000000e+00 1.000000e+00)
# dragDir     : (0.000000e+00 1.000000e+00 0.000000e+00)
# pitchAxis   : (1.000000e+00 0.000000e+00 0.000000e+00)
# magUInf     : 8.632134e-02
# lRef        : 4.000000e+00
# Aref        : 2.562000e-02
# CofR        : (0.000000e+00 0.000000e+00 0.000000e+00)
# Time        	Cm            	Cd            	Cl            	Cl(f)         	Cl(r)         
1             	-1.251554e-03	2.870008e-01	-3.084169e-02	-1.667240e-02	-1.416929e-02
2             	-1.527286e-03	5.346774e-01	-9.921874e-02	-5.113665e-02	-4.808208e-02
3             	-2.126524e-03	7.773202e-01	-7.210549e-02	-3.817927e-02	-3.392622e-02
4             	-2.292992e-03	8.695317e-01	2.077339e-03	-1.254323e-03	3.331662e-03
5             	-2.540905e-03	9.344710e-01	6.191116e-02	2.841468e-02	3.349649e-02
6             	-2.399083e-03	9.269257e-01	6.258241e-02	2.889212e-02	3.369029e-02
7             	-2.276506e-03	8.986616e-01	4.700910e-02	2.122805e-02	2.578106e-02
8             	-2.251257e-03	8.925044e-01	2.157457e-02	8.536026e-03	1.303854e-02
9             	-2.233220e-03	8.930905e-01	-4.090526e-03	-4.278484e-03	1.879572e-04
10            	-2.304284e-03	9.025565e-01	-1.635444e-02	-1.048150e-02	-5.872935e-03
11            	-2.357842e-03	9.059014e-01	-1.943821e-02	-1.207695e-02	-7.361262e-03
12            	-2.321511e-03	8.999242e-01	-1.606256e-02	-1.035279e-02	-5.709771e-03
13            	-2.284584e-03	8.909658e-01	-1.032734e-02	-7.448255e-03	-2.879087e-03
14            	-2.286071e-03	8.870930e-01	-7.141401e-03	-5.856772e-03	-1.284629e-03
15            	-2.340919e-03	8.896927e-01	-7.605774e-03	-6.143806e-03	-1.461969e-03
16            	-2.394349e-03	8.945720e-01	-9.494688e-03	-7.141693e-03	-2.352995e-03
17            	-2.458054e-03	9.016671e-01	-1.167953e-02	-8.297818e-03	-3.381711e-03
18            	-2.556150e-03	9.128791e-01	-1.500181e-02	-1.005705e-02	-4.944754e-03
19            	-2.571118e-03	9.157548e-01	-1.522086e-02	-1.018155e-02	-5.039313e-03
20            	-2.601674e-03	9.163139e-01	-1.675020e-02	-1.097677e-02	-5.773424e-03
21            	-2.630357e-03	9.164650e-01	-1.825069e-02	-1.175570e-02	-6.494987e-03
22            	-2.658137e-03	9.162453e-01	-1.969749e-02	-1.250688e-02	-7.190611e-03
23            	-2.686695e-03	9.159205e-01	-2.013529e-02	-1.275434e-02	-7.380949e-03
24            	-2.720978e-03	9.163069e-01	-1.887705e-02	-1.215950e-02	-6.717547e-03
25            	-2.754119e-03	9.171979e-01	-1.550835e-02	-1.050829e-02	-5.000054e-03
26            	-2.791931e-03	9.190695e-01	-1.038374e-02	-7.983803e-03	-2.399941e-03
27            	-2.836330e-03	9.222650e-01	-3.513452e-03	-4.593056e-03	1.079604e-03
28            	-2.875648e-03	9.260805e-01	3.204345e-03	-1.273476e-03	4.477821e-03
29            	-2.904732e-03	9.294093e-01	8.575061e-03	1.382799e-03	7.192262e-03
30            	-2.926441e-03	9.322614e-01	1.235565e-02	3.251383e-03	9.104264e-03
31            	-2.936723e-03	9.340331e-01	1.360463e-02	3.865592e-03	9.739037e-03
32            	-2.940509e-03	9.350027e-01	1.315757e-02	3.638276e-03	9.519294e-03
33            	-2.938428e-03	9.352482e-01	1.107411e-02	2.598625e-03	8.475482e-03
34            	-2.930728e-03	9.349536e-01	7.150966e-03	6.447555e-04	6.506211e-03
35            	-2.918413e-03	9.339514e-01	2.445522e-03	-1.695652e-03	4.141174e-03
36            	-2.899728e-03	9.313881e-01	-1.026378e-03	-3.412917e-03	2.386539e-03
37            	-2.874737e-03	9.266419e-01	-1.911343e-03	-3.830409e-03	1.919066e-03
38            	-2.856974e-03	9.215972e-01	2.691701e-04	-2.722389e-03	2.991559e-03
39            	-2.859974e-03	9.184620e-01	4.920666e-03	-3.996412e-04	5.320307e-03
40            	-2.876440e-03	9.170573e-01	1.061747e-02	2.432295e-03	8.185175e-03
41            	-2.904373e-03	9.177726e-01	1.637417e-02	5.282711e-03	1.109146e-02
42            	-2.945779e-03	9.217048e-01	2.113896e-02	7.623703e-03	1.351526e-02
43            	-2.994822e-03	9.284313e-01	2.416580e-02	9.088076e-03	1.507772e-02
44            	-3.036118e-03	9.354196e-01	2.515424e-02	9.541003e-03	1.561324e-02
45            	-3.055035e-03	9.392667e-01	2.503298e-02	9.461453e-03	1.557152e-02
46            	-3.054940e-03	9.394683e-01	2.522165e-02	9.555885e-03	1.566577e-02
47            	-3.047522e-03	9.378036e-01	2.626844e-02	1.008670e-02	1.618174e-02
48            	-3.037346e-03	9.351610e-01	2.831871e-02	1.112201e-02	1.719670e-02
49            	-3.027313e-03	9.318784e-01	3.180463e-02	1.287500e-02	1.892963e-02
50            	-3.030603e-03	9.293861e-01	3.735281e-02	1.564580e-02	2.170701e-02
51            	-3.049309e-03	9.284758e-01	4.503642e-02	1.946890e-02	2.556752e-02
52            	-3.080662e-03	9.296885e-01	5.178677e-02	2.281272e-02	2.897405e-02
53            	-3.113658e-03	9.312575e-01	5.738143e-02	2.557706e-02	3.180437e-02
54            	-3.150902e-03	9.336672e-01	6.080144e-02	2.724982e-02	3.355162e-02
55            	-3.187228e-03	9.364286e-01	6.219415e-02	2.790985e-02	3.428430e-02
56            	-3.224460e-03	9.399949e-01	6.144011e-02	2.749559e-02	3.394452e-02
57            	-3.258752e-03	9.443636e-01	5.874162e-02	2.611206e-02	3.262956e-02
58            	-3.290089e-03	9.496806e-01	5.504349e-02	2.423166e-02	3.081183e-02
59            	-3.313520e-03	9.549637e-01	5.196193e-02	2.266745e-02	2.929449e-02
60            	-3.328239e-03	9.594384e-01	5.054830e-02	2.194591e-02	2.860239e-02
61            	-3.338316e-03	9.634554e-01	5.146549e-02	2.239443e-02	2.907106e-02
62            	-3.340930e-03	9.645403e-01	5.356889e-02	2.344352e-02	3.012538e-02
63            	-3.338818e-03	9.635803e-01	5.571992e-02	2.452114e-02	3.119878e-02
64            	-3.332731e-03	9.607443e-01	5.662930e-02	2.498192e-02	3.164738e-02
65            	-3.324714e-03	9.569841e-01	5.598277e-02	2.466667e-02	3.131610e-02
66            	-3.321126e-03	9.541089e-01	5.412538e-02	2.374157e-02	3.038382e-02
67            	-3.323549e-03	9.529922e-01	5.204777e-02	2.270034e-02	2.934744e-02
68            	-3.325562e-03	9.528714e-01	5.121326e-02	2.228107e-02	2.893219e-02
69            	-3.326248e-03	9.534325e-01	5.252821e-02	2.293786e-02	2.959035e-02
70            	-3.309418e-03	9.523879e-01	5.769791e-02	2.553954e-02	3.215837e-02
71            	-3.273123e-03	9.488926e-01	6.760658e-02	3.053017e-02	3.707641e-02
72            	-3.234964e-03	9.447502e-01	8.049183e-02	3.701095e-02	4.348088e-02
73            	-3.209975e-03	9.419337e-01	9.271585e-02	4.314795e-02	4.956790e-02
74            	-3.201597e-03	9.413514e-01	1.014281e-01	4.751245e-02	5.391565e-02
75            	-3.201262e-03	9.420116e-01	1.053634e-01	4.948042e-02	5.588295e-02
76            	-3.197973e-03	9.425537e-01	1.049901e-01	4.929707e-02	5.569301e-02
77            	-3.188883e-03	9.428310e-01	1.007293e-01	4.717578e-02	5.355354e-02
78            	-3.175158e-03	9.434366e-01	9.229778e-02	4.297373e-02	4.932405e-02
79            	-3.155104e-03	9.439801e-01	8.168785e-02	3.768882e-02	4.399903e-02
80            	-3.128799e-03	9.436623e-01	7.182216e-02	3.278228e-02	3.903988e-02
81            	-3.101706e-03	9.426848e-01	6.469726e-02	2.924693e-02	3.545034e-02
82            	-3.077647e-03	9.413360e-01	6.050431e-02	2.717451e-02	3.332980e-02
83            	-3.058311e-03	9.397115e-01	5.911836e-02	2.650087e-02	3.261749e-02
84            	-3.048324e-03	9.383590e-01	5.969455e-02	2.679895e-02	3.289560e-02
85            	-3.052773e-03	9.381449e-01	6.154294e-02	2.771870e-02	3.382424e-02
86            	-3.067775e-03	9.392036e-01	6.449881e-02	2.918163e-02	3.531718e-02
87            	-3.093019e-03	9.419768e-01	6.886196e-02	3.133796e-02	3.752400e-02
88            	-3.124634e-03	9.460461e-01	7.393126e-02	3.384100e-02	4.009027e-02
89            	-3.153698e-03	9.496586e-01	7.793141e-02	3.581201e-02	4.211940e-02
90            	-3.180417e-03	9.520110e-01	7.989693e-02	3.676805e-02	4.312888e-02
91            	-3.199892e-03	9.523420e-01	8.001572e-02	3.680797e-02	4.320775e-02
92            	-3.210739e-03	9.506981e-01	7.818648e-02	3.588250e-02	4.230398e-02
93            	-3.217978e-03	9.480455e-01	7.445725e-02	3.401065e-02	4.044660e-02
94            	-3.226301e-03	9.454080e-01	6.875725e-02	3.115233e-02	3.760493e-02
95            	-3.236272e-03	9.434953e-01	6.233639e-02	2.793192e-02	3.440447e-02
96            	-3.250477e-03	9.430099e-01	5.643612e-02	2.496758e-02	3.146854e-02
97            	-3.271783e-03	9.444342e-01	5.169845e-02	2.257744e-02	2.912101e-02
98            	-3.308232e-03	9.488573e-01	4.819815e-02	2.079084e-02	2.740731e-02
99            	-3.347402e-03	9.549676e-01	4.670878e-02	2.000699e-02	2.670179e-02
100           	-3.362958e-03	9.600226e-01	4.839079e-02	2.083244e-02	2.755835e-02
101           	-3.350368e-03	9.628850e-01	5.250237e-02	2.290082e-02	2.960155e-02
102           	-3.320539e-03	9.635662e-01	5.762947e-02	2.549420e-02	3.213528e-02
103           	-3.285413e-03	9.623514e-01	6.291436e-02	2.817177e-02	3.474259e-02
104           	-3.255496e-03	9.593546e-01	6.801561e-02	3.075231e-02	3.726330e-02
105           	-3.242334e-03	9.557007e-01	7.156228e-02	3.253880e-02	3.902347e-02
106           	-3.252490e-03	9.531773e-01	7.204291e-02	3.276896e-02	3.927394e-02
107           	-3.273015e-03	9.518752e-01	6.989903e-02	3.167650e-02	3.822253e-02
108           	-3.293749e-03	9.516583e-01	6.632357e-02	2.986804e-02	3.645554e-02
109           	-3.308089e-03	9.519650e-01	6.224788e-02	2.781585e-02	3.443203e-02
110           	-3.312156e-03	9.524862e-01	5.832419e-02	2.584994e-02	3.247425e-02
111           	-3.307020e-03	9.534588e-01	5.593191e-02	2.465894e-02	3.127297e-02
112           	-3.286663e-03	9.534036e-01	5.553982e-02	2.448325e-02	3.105657e-02
113           	-3.252238e-03	9.517434e-01	5.572082e-02	2.460817e-02	3.111265e-02
114           	-3.210215e-03	9.486328e-01	5.510727e-02	2.434342e-02	3.076385e-02
115           	-3.171302e-03	9.450321e-01	5.380472e-02	2.373106e-02	3.007366e-02
116           	-3.150604e-03	9.434932e-01	5.247679e-02	2.308779e-02	2.938900e-02
117           	-3.149310e-03	9.447122e-01	5.179492e-02	2.274815e-02	2.904677e-02
118           	-3.162449e-03	9.486781e-01	5.165348e-02	2.266429e-02	2.898919e-02
119           	-3.192677e-03	9.556083e-01	5.172010e-02	2.266737e-02	2.905273e-02
120           	-3.227647e-03	9.635141e-01	5.141450e-02	2.247960e-02	2.893490e-02
121           	-3.253386e-03	9.694225e-01	4.994777e-02	2.172050e-02	2.822727e-02
122           	-3.284832e-03	9.755905e-01	4.552435e-02	1.947735e-02	2.604701e-02
123           	-3.301299e-03	9.783795e-01	3.869766e-02	1.604753e-02	2.265013e-02
124           	-3.296222e-03	9.769879e-01	3.154257e-02	1.247507e-02	1.906751e-02
125           	-3.275317e-03	9.723460e-01	2.607244e-02	9.760901e-03	1.631154e-02
126           	-3.243352e-03	9.656900e-01	2.287236e-02	8.192828e-03	1.467953e-02
127           	-3.214076e-03	9.584818e-01	2.169881e-02	7.635327e-03	1.406348e-02
128           	-3.206613e-03	9.533864e-01	2.240230e-02	7.994538e-03	1.440776e-02
129           	-3.216843e-03	9.499486e-01	2.434408e-02	8.955196e-03	1.538888e-02
130           	-3.233246e-03	9.481449e-01	2.737613e-02	1.045482e-02	1.692131e-02
131           	-3.247760e-03	9.475546e-01	3.118751e-02	1.234600e-02	1.884152e-02
132           	-3.268424e-03	9.503312e-01	3.498348e-02	1.422332e-02	2.076017e-02
133           	-3.282513e-03	9.554428e-01	3.752439e-02	1.547968e-02	2.204471e-02
134           	-3.286640e-03	9.606858e-01	3.907311e-02	1.624992e-02	2.282320e-02
135           	-3.292500e-03	9.661614e-01	4.016140e-02	1.678820e-02	2.337320e-02
136           	-3.305337e-03	9.716088e-01	4.009739e-02	1.674336e-02	2.335403e-02
137           	-3.324395e-03	9.766017e-01	3.767812e-02	1.551467e-02	2.216346e-02
138           	-3.344214e-03	9.798858e-01	3.129114e-02	1.230136e-02	1.898978e-02
139           	-3.343651e-03	9.792113e-01	2.203935e-02	7.676027e-03	1.436333e-02
140           	-3.335564e-03	9.768455e-01	1.346306e-02	3.395967e-03	1.006709e-02
141           	-3.329072e-03	9.738925e-01	8.829869e-03	1.085863e-03	7.744006e-03
142           	-3.343732e-03	9.723393e-01	9.396812e-03	1.354674e-03	8.042138e-03
143           	-3.384602e-03	9.728775e-01	1.460370e-02	3.917251e-03	1.068645e-02
144           	-3.426799e-03	9.740093e-01	2.168411e-02	7.415257e-03	1.426885e-02
145           	-3.498981e-03	9.775239e-01	3.088576e-02	1.194390e-02	1.894186e-02
146           	-3.549088e-03	9.798291e-01	3.893335e-02	1.591759e-02	2.301577e-02
147           	-3.568340e-03	9.795577e-01	4.589485e-02	1.937909e-02	2.651577e-02
148           	-3.571282e-03	9.785431e-01	5.224184e-02	2.254964e-02	2.969220e-02
149           	-3.570095e-03	9.782459e-01	5.802213e-02	2.544097e-02	3.258116e-02
150           	-3.573962e-03	9.793462e-01	6.349097e-02	2.817152e-02	3.531945e-02
151           	-3.581726e-03	9.813092e-01	6.799545e-02	3.041600e-02	3.757945e-02
152           	-3.591496e-03	9.843734e-01	7.096046e-02	3.188873e-02	3.907173e-02
153           	-3.592762e-03	9.878522e-01	7.273138e-02	3.277293e-02	3.995845e-02
154           	-3.569434e-03	9.911104e-01	7.463517e-02	3.374815e-02	4.088702e-02
155           	-3.497979e-03	9.895677e-01	7.587167e-02	3.443786e-02	4.143382e-02
156           	-3.378199e-03	9.806092e-01	7.404552e-02	3.364456e-02	4.040096e-02
157           	-3.240496e-03	9.657142e-01	6.882258e-02	3.117080e-02	3.765179e-02
158           	-3.119904e-03	9.496885e-01	6.216574e-02	2.796297e-02	3.420278e-02
159           	-3.056862e-03	9.387474e-01	5.663151e-02	2.525889e-02	3.137262e-02
160           	-3.040719e-03	9.333153e-01	5.230836e-02	2.311346e-02	2.919490e-02
161           	-3.041343e-03	9.297652e-01	4.787753e-02	2.089742e-02	2.698011e-02
162           	-3.058132e-03	9.290120e-01	4.188924e-02	1.788649e-02	2.400275e-02
163           	-3.095680e-03	9.333055e-01	3.363815e-02	1.372340e-02	1.991475e-02
164           	-3.140560e-03	9.413117e-01	2.444934e-02	9.084110e-03	1.536523e-02
165           	-3.170957e-03	9.486639e-01	1.683268e-02	5.245383e-03	1.158730e-02
166           	-3.178016e-03	9.527118e-01	1.196771e-02	2.805841e-03	9.161874e-03
167           	-3.164680e-03	9.534492e-01	1.047656e-02	2.073600e-03	8.402961e-03
168           	-3.140879e-03	9.516716e-01	1.319938e-02	3.458811e-03	9.740569e-03
169           	-3.117442e-03	9.486394e-01	1.958255e-02	6.673831e-03	1.290872e-02
170           	-3.101267e-03	9.454840e-01	2.864783e-02	1.122265e-02	1.742518e-02
171           	-3.096738e-03	9.428320e-01	3.857419e-02	1.619036e-02	2.238383e-02
172           	-3.101335e-03	9.408447e-01	4.826007e-02	2.102870e-02	2.723137e-02
173           	-3.112949e-03	9.391489e-01	5.597571e-02	2.487490e-02	3.110080e-02
174           	-3.125995e-03	9.374810e-01	6.079643e-02	2.727222e-02	3.352421e-02
175           	-3.138321e-03	9.362721e-01	6.241130e-02	2.806733e-02	3.434397e-02
176           	-3.153816e-03	9.358864e-01	6.063765e-02	2.716501e-02	3.347264e-02
177           	-3.175806e-03	9.371723e-01	5.559584e-02	2.462211e-02	3.097372e-02
178           	-3.198076e-03	9.396506e-01	4.894809e-02	2.127597e-02	2.767212e-02
179           	-3.222154e-03	9.432516e-01	4.174235e-02	1.764902e-02	2.409333e-02
180           	-3.244915e-03	9.472896e-01	3.509691e-02	1.430354e-02	2.079337e-02
181           	-3.270160e-03	9.520950e-01	3.038785e-02	1.192377e-02	1.846409e-02
182           	-3.289642e-03	9.552979e-01	3.012464e-02	1.177268e-02	1.835196e-02
183           	-3.302140e-03	9.566445e-01	3.499621e-02	1.419597e-02	2.080025e-02
184           	-3.320218e-03	9.576464e-01	4.517440e-02	1.926698e-02	2.590742e-02
185           	-3.348675e-03	9.586791e-01	5.959402e-02	2.644833e-02	3.314568e-02
186           	-3.385313e-03	9.600052e-01	7.498074e-02	3.410506e-02	4.087568e-02
187           	-3.427518e-03	9.629224e-01	8.600323e-02	3.957410e-02	4.642914e-02
188           	-3.468361e-03	9.678346e-01	9.000076e-02	4.153202e-02	4.846874e-02
189           	-3.482001e-03	9.715246e-01	8.675561e-02	3.989580e-02	4.685981e-02
190           	-3.461500e-03	9.730325e-01	7.588300e-02	3.448000e-02	4.140300e-02
191           	-3.409148e-03	9.719977e-01	5.630686e-02	2.474428e-02	3.156258e-02
192           	-3.341306e-03	9.695353e-01	3.139372e-02	1.235556e-02	1.903817e-02
193           	-3.263500e-03	9.635894e-01	9.784399e-03	1.628700e-03	8.155699e-03
194           	-3.212405e-03	9.579738e-01	-3.530334e-04	-3.388922e-03	3.035888e-03
195           	-3.175093e-03	9.532386e-01	-2.154202e-03	-4.252193e-03	2.097992e-03
196           	-3.155325e-03	9.497441e-01	3.507294e-03	-1.401678e-03	4.908973e-03
197           	-3.154956e-03	9.471831e-01	1.771604e-02	5.703063e-03	1.201297e-02
198           	-3.191293e-03	9.478051e-01	3.738854e-02	1.550298e-02	2.188556e-02
199           	-3.252504e-03	9.517549e-01	5.620246e-02	2.484872e-02	3.135373e-02
200           	-3.337160e-03	9.596793e-01	7.044814e-02	3.188691e-02	3.856123e-02
201           	-3.372354e-03	9.635237e-01	7.770461e-02	3.547995e-02	4.222466e-02
202           	-3.380399e-03	9.642936e-01	7.953101e-02	3.638511e-02	4.314591e-02
203           	-3.368373e-03	9.627493e-01	7.649932e-02	3.488129e-02	4.161803e-02
204           	-3.345558e-03	9.604796e-01	6.946773e-02	3.138831e-02	3.807942e-02
205           	-3.315353e-03	9.584869e-01	6.076191e-02	2.706560e-02	3.369631e-02
206           	-3.286741e-03	9.584224e-01	5.205310e-02	2.273981e-02	2.931329e-02
207           	-3.260395e-03	9.595378e-01	4.475896e-02	1.911908e-02	2.563987e-02
208           	-3.239511e-03	9.606543e-01	4.115796e-02	1.733947e-02	2.381849e-02
209           	-3.222831e-03	9.604284e-01	4.238467e-02	1.796950e-02	2.441517e-02
210           	-3.209485e-03	9.582055e-01	4.721064e-02	2.039584e-02	2.681481e-02
211           	-3.207588e-03	9.557505e-01	5.296133e-02	2.327308e-02	2.968825e-02
212           	-3.217149e-03	9.535391e-01	5.722462e-02	2.539516e-02	3.182946e-02
213           	-3.234010e-03	9.522368e-01	5.866241e-02	2.609719e-02	3.256521e-02
214           	-3.252522e-03	9.519856e-01	5.735801e-02	2.542648e-02	3.193153e-02
215           	-3.265837e-03	9.522314e-01	5.381083e-02	2.363958e-02	3.017125e-02
216           	-3.272726e-03	9.529639e-01	4.925172e-02	2.135313e-02	2.789858e-02
217           	-3.273222e-03	9.542550e-01	4.473798e-02	1.909577e-02	2.564221e-02
218           	-3.260510e-03	9.550792e-01	4.053418e-02	1.700658e-02	2.352760e-02
219           	-3.240453e-03	9.555830e-01	3.658930e-02	1.505420e-02	2.153510e-02
220           	-3.211527e-03	9.542171e-01	3.419231e-02	1.388463e-02	2.030768e-02
221           	-3.184582e-03	9.512019e-01	3.427105e-02	1.395094e-02	2.032011e-02
222           	-3.170421e-03	9.478603e-01	3.682412e-02	1.524164e-02	2.158248e-02
223           	-3.168012e-03	9.449593e-01	4.103792e-02	1.735095e-02	2.368697e-02
224           	-3.182599e-03	9.442457e-01	4.653719e-02	2.008600e-02	2.645119e-02
225           	-3.208031e-03	9.457641e-01	5.187277e-02	2.272835e-02	2.914441e-02
226           	-3.246288e-03	9.499971e-01	5.606022e-02	2.478382e-02	3.127640e-02
227           	-3.287519e-03	9.554313e-01	5.833250e-02	2.587873e-02	3.245377e-02
228           	-3.321330e-03	9.602401e-01	5.752654e-02	2.544194e-02	3.208460e-02
229           	-3.334075e-03	9.619419e-01	5.163005e-02	2.248095e-02	2.914910e-02
230           	-3.316471e-03	9.590510e-01	4.363072e-02	1.849889e-02	2.513183e-02
231           	-3.294278e-03	9.550021e-01	3.691189e-02	1.516167e-02	2.175022e-02
232           	-3.287583e-03	9.524261e-01	3.355805e-02	1.349144e-02	2.006661e-02
233           	-3.292070e-03	9.510504e-01	3.433563e-02	1.387575e-02	2.045989e-02
234           	-3.303436e-03	9.506233e-01	3.882731e-02	1.611022e-02	2.271709e-02
235           	-3.321400e-03	9.512558e-01	4.611104e-02	1.973412e-02	2.637692e-02
236           	-3.340367e-03	9.525687e-01	5.416263e-02	2.374095e-02	3.042168e-02
237           	-3.361431e-03	9.547084e-01	6.159519e-02	2.743616e-02	3.415902e-02
238           	-3.370634e-03	9.556400e-01	6.634056e-02	2.979965e-02	3.654091e-02
239           	-3.372490e-03	9.558300e-01	6.874190e-02	3.099846e-02	3.774344e-02
240           	-3.374147e-03	9.566537e-01	6.959668e-02	3.142419e-02	3.817248e-02
241           	-3.372517e-03	9.574020e-01	6.862843e-02	3.094170e-02	3.768673e-02
242           	-3.372948e-03	9.586313e-01	6.621589e-02	2.973500e-02	3.648089e-02
243           	-3.379402e-03	9.609705e-01	6.197929e-02	2.761024e-02	3.436905e-02
244           	-3.386190e-03	9.625842e-01	5.701174e-02	2.511968e-02	3.189206e-02
245           	-3.387302e-03	9.632634e-01	5.237299e-02	2.279919e-02	2.957380e-02
246           	-3.385164e-03	9.633113e-01	4.836699e-02	2.079833e-02	2.756866e-02
247           	-3.381757e-03	9.632105e-01	4.487501e-02	1.905575e-02	2.581926e-02
248           	-3.378597e-03	9.634375e-01	4.245787e-02	1.785034e-02	2.460753e-02
249           	-3.366610e-03	9.635208e-01	4.026247e-02	1.676463e-02	2.349785e-02
250           	-3.353213e-03	9.647349e-01	3.838912e-02	1.584135e-02	2.254777e-02
251           	-3.356512e-03	9.694914e-01	3.798540e-02	1.563619e-02	2.234921e-02
252           	-3.379582e-03	9.777331e-01	4.074096e-02	1.699090e-02	2.375006e-02
253           	-3.428025e-03	9.894792e-01	4.642426e-02	1.978411e-02	2.664016e-02
254           	-3.463826e-03	9.985066e-01	5.265818e-02	2.286526e-02	2.979292e-02
255           	-3.469965e-03	1.001516e+00	5.583915e-02	2.444961e-02	3.138954e-02
256           	-3.441858e-03	9.986094e-01	5.468920e-02	2.390274e-02	3.078646e-02
257           	-3.374558e-03	9.896227e-01	4.834286e-02	2.079687e-02	2.754599e-02
258           	-3.276150e-03	9.760568e-01	3.680064e-02	1.512417e-02	2.167647e-02
259           	-3.184512e-03	9.623812e-01	2.418635e-02	8.908663e-03	1.527769e-02
260           	-3.135741e-03	9.536157e-01	1.636808e-02	5.048298e-03	1.131978e-02
261           	-3.124598e-03	9.496237e-01	1.487836e-02	4.314581e-03	1.056378e-02
262           	-3.120491e-03	9.459128e-01	1.763295e-02	5.695986e-03	1.193697e-02
263           	-3.125057e-03	9.428887e-01	2.277990e-02	8.264894e-03	1.451501e-02
264           	-3.147993e-03	9.414425e-01	2.960393e-02	1.165397e-02	1.794996e-02
265           	-3.192841e-03	9.427971e-01	3.605443e-02	1.483437e-02	2.122005e-02
266           	-3.250044e-03	9.463139e-01	4.042181e-02	1.696086e-02	2.346095e-02
267           	-3.320525e-03	9.524796e-01	4.221835e-02	1.778865e-02	2.442970e-02
268           	-3.376749e-03	9.591636e-01	4.278277e-02	1.801464e-02	2.476813e-02
269           	-3.407984e-03	9.645471e-01	4.351686e-02	1.835044e-02	2.516641e-02
270           	-3.414255e-03	9.681615e-01	4.469680e-02	1.893414e-02	2.576265e-02
271           	-3.419250e-03	9.720660e-01	4.570877e-02	1.943514e-02	2.627364e-02
272           	-3.423201e-03	9.757517e-01	4.693702e-02	2.004531e-02	2.689171e-02
273           	-3.430849e-03	9.790936e-01	4.882662e-02	2.098246e-02	2.784416e-02
274           	-3.474665e-03	9.864095e-01	5.164202e-02	2.234634e-02	2.929567e-02
275           	-3.540145e-03	9.944995e-01	5.385677e-02	2.338824e-02	3.046853e-02
276           	-3.584815e-03	9.985138e-01	5.332863e-02	2.307950e-02	3.024913e-02
277           	-3.630449e-03	1.003751e+00	4.743312e-02	2.008611e-02	2.734701e-02
278           	-3.655432e-03	1.008219e+00	4.067397e-02	1.668155e-02	2.399242e-02
279           	-3.645310e-03	1.011114e+00	3.530701e-02	1.400820e-02	2.129882e-02
280           	-3.618645e-03	1.013917e+00	3.219592e-02	1.247931e-02	1.971660e-02
281           	-3.575848e-03	1.013944e+00	3.215314e-02	1.250072e-02	1.965242e-02
282           	-3.504255e-03	1.007123e+00	3.658354e-02	1.478752e-02	2.179603e-02
283           	-3.398110e-03	9.907731e-01	4.567362e-02	1.943870e-02	2.623492e-02
284           	-3.291315e-03	9.708620e-01	5.677737e-02	2.509737e-02	3.168000e-02
285           	-3.215332e-03	9.538623e-01	6.728977e-02	3.042955e-02	3.686022e-02
286           	-3.158869e-03	9.392824e-01	7.614515e-02	3.491371e-02	4.123145e-02
287           	-3.127237e-03	9.298226e-01	8.293380e-02	3.833966e-02	4.459413e-02
288           	-3.114269e-03	9.249186e-01	8.877239e-02	4.127193e-02	4.750046e-02
289           	-3.116052e-03	9.239656e-01	9.380024e-02	4.378407e-02	5.001617e-02
290           	-3.138438e-03	9.280830e-01	9.751662e-02	4.561987e-02	5.189675e-02
291           	-3.163768e-03	9.332929e-01	9.985523e-02	4.676385e-02	5.309138e-02
292           	-3.170770e-03	9.351335e-01	1.011518e-01	4.740513e-02	5.374667e-02
293           	-3.159455e-03	9.336081e-01	1.020409e-01	4.786101e-02	5.417992e-02
294           	-3.127528e-03	9.284126e-01	1.032832e-01	4.851409e-02	5.476914e-02
295           	-3.089672e-03	9.217677e-01	1.049874e-01	4.940403e-02	5.558337e-02
296           	-3.064267e-03	9.162956e-01	1.065651e-01	5.021829e-02	5.634682e-02
297           	-3.066233e-03	9.138701e-01	1.088098e-01	5.133864e-02	5.747111e-02
298           	-3.064686e-03	9.109977e-01	1.099792e-01	5.192493e-02	5.805430e-02
299           	-3.082089e-03	9.110433e-01	1.105949e-01	5.221537e-02	5.837955e-02
300           	-3.106543e-03	9.129125e-01	1.107790e-01	5.228294e-02	5.849603e-02
301           	-3.134523e-03	9.163296e-01	1.113047e-01	5.251783e-02	5.878688e-02
302           	-3.158908e-03	9.204187e-01	1.130739e-01	5.337804e-02	5.969586e-02
303           	-3.175486e-03	9.244412e-01	1.163084e-01	5.497873e-02	6.132970e-02
304           	-3.194902e-03	9.287488e-01	1.195143e-01	5.656223e-02	6.295204e-02
305           	-3.211349e-03	9.322065e-01	1.213877e-01	5.748248e-02	6.390518e-02
306           	-3.229023e-03	9.352993e-01	1.207848e-01	5.716335e-02	6.362140e-02
307           	-3.251698e-03	9.378980e-01	1.154027e-01	5.444965e-02	6.095305e-02
308           	-3.282550e-03	9.404969e-01	1.039091e-01	4.867199e-02	5.523709e-02
309           	-3.322601e-03	9.440701e-01	8.590526e-02	3.963003e-02	4.627523e-02
310           	-3.362581e-03	9.486580e-01	6.310328e-02	2.818906e-02	3.491422e-02
311           	-3.384477e-03	9.527595e-01	3.889330e-02	1.606217e-02	2.283112e-02
312           	-3.394431e-03	9.591420e-01	1.011243e-02	1.661784e-03	8.450646e-03
313           	-3.370385e-03	9.636945e-01	-1.507888e-02	-1.090982e-02	-4.169053e-03
314           	-3.312181e-03	9.633717e-01	-3.050144e-02	-1.856290e-02	-1.193854e-02
315           	-3.252160e-03	9.631661e-01	-3.695358e-02	-2.172895e-02	-1.522463e-02
316           	-3.203383e-03	9.640281e-01	-3.357573e-02	-1.999125e-02	-1.358448e-02
317           	-3.179550e-03	9.668656e-01	-2.035820e-02	-1.335865e-02	-6.999549e-03
318           	-3.188525e-03	9.711659e-01	1.039161e-03	-2.668944e-03	3.708105e-03
319           	-3.206576e-03	9.725494e-01	2.467231e-02	9.129578e-03	1.554273e-02
320           	-3.206781e-03	9.681246e-01	4.313466e-02	1.836055e-02	2.477411e-02
321           	-3.196898e-03	9.606448e-01	5.273707e-02	2.317164e-02	2.956543e-02
322           	-3.193159e-03	9.518038e-01	5.563087e-02	2.462227e-02	3.100859e-02
323           	-3.213117e-03	9.484446e-01	4.837312e-02	2.097344e-02	2.739968e-02
324           	-3.232041e-03	9.483264e-01	3.358246e-02	1.355919e-02	2.002327e-02
325           	-3.228012e-03	9.486212e-01	1.716508e-02	5.354529e-03	1.181055e-02
326           	-3.203230e-03	9.485444e-01	7.639561e-03	6.165505e-04	7.023010e-03
327           	-3.169217e-03	9.477740e-01	7.503473e-03	5.825195e-04	6.920954e-03
328           	-3.132028e-03	9.459048e-01	1.543605e-02	4.585998e-03	1.085005e-02
329           	-3.100055e-03	9.425378e-01	3.015316e-02	1.197653e-02	1.817664e-02
330           	-3.094961e-03	9.398460e-01	4.692853e-02	2.036930e-02	2.655922e-02
331           	-3.113808e-03	9.387184e-01	6.027780e-02	2.702509e-02	3.325271e-02
332           	-3.142061e-03	9.385072e-01	6.839452e-02	3.105520e-02	3.733932e-02
333           	-3.165624e-03	9.392218e-01	7.095421e-02	3.231148e-02	3.864273e-02
334           	-3.197610e-03	9.420221e-01	6.835652e-02	3.098065e-02	3.737587e-02
335           	-3.216043e-03	9.445970e-01	6.116944e-02	2.736868e-02	3.380076e-02
336           	-3.229372e-03	9.474550e-01	5.296860e-02	2.325493e-02	2.971367e-02
337           	-3.257496e-03	9.532831e-01	4.535487e-02	1.941994e-02	2.593493e-02
338           	-3.280733e-03	9.590412e-01	4.046720e-02	1.695287e-02	2.351433e-02
339           	-3.287244e-03	9.622230e-01	3.905879e-02	1.624215e-02	2.281664e-02
340           	-3.283264e-03	9.634576e-01	3.997916e-02	1.670632e-02	2.327284e-02
341           	-3.280797e-03	9.643211e-01	4.107699e-02	1.725770e-02	2.381929e-02
342           	-3.292022e-03	9.661467e-01	3.949132e-02	1.645364e-02	2.303768e-02
343           	-3.304002e-03	9.670006e-01	3.382476e-02	1.360838e-02	2.021638e-02
344           	-3.287320e-03	9.639323e-01	2.619911e-02	9.812236e-03	1.638688e-02
345           	-3.282711e-03	9.639302e-01	1.718624e-02	5.310409e-03	1.187583e-02
346           	-3.286010e-03	9.656192e-01	9.405142e-03	1.416561e-03	7.988581e-03
347           	-3.299618e-03	9.688789e-01	5.138341e-03	-7.304471e-04	5.868788e-03
348           	-3.330039e-03	9.737402e-01	4.422210e-03	-1.118934e-03	5.541144e-03
349           	-3.361628e-03	9.781181e-01	7.715060e-03	4.959017e-04	7.219158e-03
350           	-3.391677e-03	9.817203e-01	1.479554e-02	4.006094e-03	1.078945e-02
351           	-3.403575e-03	9.821222e-01	2.387425e-02	8.533552e-03	1.534070e-02
352           	-3.397206e-03	9.790365e-01	3.423623e-02	1.372091e-02	2.051532e-02
353           	-3.377773e-03	9.735346e-01	4.496282e-02	1.910364e-02	2.585918e-02
354           	-3.344231e-03	9.649048e-01	5.426695e-02	2.378924e-02	3.047770e-02
355           	-3.307608e-03	9.565822e-01	6.078018e-02	2.708248e-02	3.369770e-02
356           	-3.283771e-03	9.508025e-01	6.459561e-02	2.901403e-02	3.558158e-02
357           	-3.264754e-03	9.465092e-01	6.743063e-02	3.045056e-02	3.698007e-02
358           	-3.245855e-03	9.428889e-01	7.064208e-02	3.207518e-02	3.856690e-02
359           	-3.225424e-03	9.396220e-01	7.526707e-02	3.440811e-02	4.085896e-02
360           	-3.215062e-03	9.380841e-01	8.102643e-02	3.729815e-02	4.372828e-02
361           	-3.218754e-03	9.382811e-01	8.751927e-02	4.054088e-02	4.697839e-02
362           	-3.221169e-03	9.374591e-01	9.522565e-02	4.439165e-02	5.083399e-02
363           	-3.213307e-03	9.333487e-01	1.041429e-01	4.885816e-02	5.528478e-02