# Force coefficients
# liftDir     : (0.000000e+00 0.000000e+00 1.000000e+00)
# dragDir     : (0.000000e+00 1.000000e+00 0.000000e+00)
# pitchAxis   : (1.000000e+00 0.000000e+00 0.000000e+00)
# magUInf     : 1.569479e-01
# lRef        : 4.000000e+00
# Aref        : 2.562000e-02
# CofR        : (0.000000e+00 0.000000e+00 0.000000e+00)
# Time        	Cm            	Cd            	Cl            	Cl(f)         	Cl(r)         
1             	-5.516754e-04	1.266411e-01	-1.378569e-02	-7.444523e-03	-6.341172e-03
2             	-3.131572e-03	8.005417e-01	-9.528300e-02	-5.077307e-02	-4.450993e-02
3             	-3.659178e-03	1.092543e+00	-7.442106e-02	-4.086971e-02	-3.355135e-02
4             	-2.858209e-03	1.058647e+00	-1.390577e-02	-9.811092e-03	-4.094674e-03
5             	-1.993133e-03	9.294771e-01	3.520092e-02	1.560733e-02	1.959359e-02
6             	-1.572464e-03	8.373927e-01	4.781947e-02	2.233727e-02	2.548220e-02
7             	-1.306960e-03	7.528398e-01	5.390730e-02	2.564669e-02	2.826061e-02
8             	-1.424464e-03	7.362441e-01	4.260291e-02	1.987699e-02	2.272592e-02
9             	-1.739934e-03	7.601726e-01	2.542331e-02	1.097172e-02	1.445159e-02
10            	-1.994969e-03	7.932610e-01	1.148497e-02	3.747518e-03	7.737455e-03
11            	-2.201906e-03	8.248123e-01	3.711289e-04	-2.016341e-03	2.387470e-03
12            	-2.357248e-03	8.527649e-01	-9.751492e-03	-7.232994e-03	-2.518498e-03
13            	-2.460522e-03	8.735045e-01	-1.862360e-02	-1.177232e-02	-6.851279e-03
14            	-2.502704e-03	8.868007e-01	-2.697708e-02	-1.599125e-02	-1.098584e-02
15            	-2.490430e-03	8.837138e-01	-2.979262e-02	-1.738674e-02	-1.240588e-02
16            	-2.520721e-03	8.775382e-01	-2.781017e-02	-1.642581e-02	-1.138437e-02
17            	-2.607878e-03	8.753090e-01	-2.244412e-02	-1.382994e-02	-8.614181e-03
18            	-2.715512e-03	8.775682e-01	-1.632287e-02	-1.087695e-02	-5.445922e-03
19            	-2.834923e-03	8.821529e-01	-9.509252e-03	-7.589549e-03	-1.919703e-03
20            	-2.954753e-03	8.878030e-01	-2.119958e-03	-4.014732e-03	1.894774e-03
21            	-3.056622e-03	8.934024e-01	5.025099e-03	-5.440723e-04	5.569172e-03
22            	-3.126995e-03	8.984436e-01	1.149056e-02	2.618284e-03	8.872274e-03
23            	-3.164590e-03	9.027457e-01	1.706759e-02	5.369206e-03	1.169839e-02
24            	-3.178018e-03	9.064611e-01	2.181319e-02	7.728579e-03	1.408461e-02
25            	-3.178683e-03	9.103003e-01	2.513085e-02	9.386742e-03	1.574411e-02
26            	-3.168337e-03	9.128357e-01	2.769557e-02	1.067945e-02	1.701612e-02
27            	-3.153533e-03	9.142387e-01	2.925515e-02	1.147404e-02	1.778111e-02
28            	-3.137336e-03	9.153116e-01	2.881370e-02	1.126952e-02	1.754419e-02
29            	-3.121291e-03	9.156199e-01	2.714283e-02	1.045012e-02	1.669271e-02
30            	-3.110064e-03	9.153510e-01	2.474019e-02	9.260030e-03	1.548016e-02
31            	-3.102497e-03	9.144214e-01	2.244313e-02	8.119066e-03	1.432406e-02
32            	-3.096369e-03	9.126288e-01	2.113766e-02	7.472461e-03	1.366520e-02
33            	-3.089329e-03	9.096908e-01	2.137623e-02	7.598786e-03	1.377745e-02
34            	-3.081837e-03	9.057615e-01	2.351074e-02	8.673531e-03	1.483720e-02
35            	-3.076583e-03	9.014294e-01	2.724338e-02	1.054511e-02	1.669828e-02
36            	-3.073565e-03	8.969767e-01	3.269699e-02	1.327493e-02	1.942206e-02
37            	-3.083529e-03	8.934989e-01	3.862634e-02	1.622964e-02	2.239670e-02
38            	-3.108086e-03	8.914049e-01	4.523747e-02	1.951065e-02	2.572682e-02
39            	-3.142145e-03	8.907465e-01	5.140876e-02	2.256224e-02	2.884653e-02
40            	-3.180352e-03	8.913211e-01	5.635780e-02	2.499855e-02	3.135925e-02
41            	-3.224243e-03	8.936027e-01	6.021108e-02	2.688129e-02	3.332978e-02
42            	-3.267638e-03	8.978271e-01	6.234951e-02	2.790712e-02	3.444239e-02
43            	-3.309786e-03	9.046234e-01	6.329387e-02	2.833715e-02	3.495672e-02
44            	-3.338747e-03	9.112034e-01	6.414986e-02	2.873618e-02	3.541368e-02
45            	-3.353260e-03	9.159766e-01	6.656674e-02	2.993011e-02	3.663663e-02
46            	-3.359701e-03	9.189821e-01	7.027823e-02	3.177941e-02	3.849882e-02
47            	-3.361952e-03	9.209340e-01	7.480359e-02	3.403984e-02	4.076375e-02
48            	-3.363125e-03	9.217037e-01	7.942813e-02	3.635094e-02	4.307719e-02
49            	-3.365682e-03	9.214735e-01	8.361474e-02	3.844169e-02	4.517305e-02
50            	-3.370922e-03	9.203159e-01	8.682517e-02	4.004166e-02	4.678351e-02
51            	-3.384664e-03	9.193413e-01	8.838114e-02	4.080591e-02	4.757524e-02
52            	-3.409015e-03	9.192827e-01	8.805028e-02	4.061612e-02	4.743415e-02
53            	-3.442131e-03	9.202743e-01	8.598193e-02	3.954884e-02	4.643310e-02
54            	-3.477488e-03	9.221186e-01	8.248721e-02	3.776612e-02	4.472109e-02
55            	-3.511656e-03	9.245333e-01	7.828593e-02	3.563131e-02	4.265462e-02
56            	-3.541435e-03	9.269733e-01	7.455953e-02	3.373833e-02	4.082120e-02
57            	-3.569399e-03	9.293304e-01	7.183844e-02	3.234982e-02	3.948862e-02
58            	-3.601739e-03	9.317988e-01	7.051691e-02	3.165671e-02	3.886019e-02
59            	-3.636603e-03	9.340242e-01	7.059634e-02	3.166157e-02	3.893477e-02
60            	-3.672091e-03	9.359337e-01	7.154497e-02	3.210040e-02	3.944458e-02
61            	-3.706940e-03	9.376920e-01	7.294625e-02	3.276619e-02	4.018006e-02
62            	-3.745810e-03	9.399247e-01	7.466370e-02	3.358604e-02	4.107766e-02
63            	-3.782533e-03	9.423593e-01	7.669240e-02	3.456367e-02	4.212874e-02
64            	-3.811474e-03	9.445697e-01	7.876852e-02	3.557279e-02	4.319573e-02
65            	-3.836086e-03	9.469471e-01	8.046608e-02	3.639696e-02	4.406913e-02
66            	-3.853797e-03	9.493765e-01	8.165519e-02	3.697380e-02	4.468139e-02
67            	-3.862911e-03	9.517469e-01	8.201593e-02	3.714505e-02	4.487087e-02
68            	-3.862420e-03	9.539245e-01	8.123521e-02	3.675518e-02	4.448002e-02
69            	-3.847850e-03	9.562409e-01	7.891493e-02	3.560962e-02	4.330532e-02
70            	-3.818917e-03	9.576263e-01	7.511487e-02	3.373852e-02	4.137635e-02
71            	-3.777088e-03	9.578925e-01	7.009251e-02	3.126917e-02	3.882334e-02
72            	-3.724737e-03	9.567573e-01	6.434750e-02	2.844901e-02	3.589849e-02
73            	-3.674094e-03	9.544011e-01	5.951816e-02	2.608498e-02	3.343317e-02
74            	-3.620062e-03	9.511457e-01	5.554686e-02	2.415337e-02	3.139349e-02
75            	-3.564047e-03	9.476271e-01	5.234169e-02	2.260680e-02	2.973489e-02
76            	-3.503291e-03	9.449551e-01	4.846007e-02	2.072675e-02	2.773333e-02
77            	-3.444116e-03	9.426702e-01	4.519153e-02	1.915165e-02	2.603988e-02
78            	-3.387698e-03	9.406441e-01	4.157199e-02	1.739830e-02	2.417369e-02
79            	-3.336485e-03	9.388811e-01	3.760685e-02	1.546694e-02	2.213991e-02
80            	-3.300113e-03	9.384448e-01	3.272049e-02	1.306013e-02	1.966036e-02
81            	-3.277105e-03	9.392189e-01	2.776394e-02	1.060487e-02	1.715908e-02
82            	-3.276434e-03	9.430511e-01	2.424170e-02	8.844416e-03	1.539728e-02
83            	-3.287009e-03	9.490195e-01	2.347050e-02	8.448240e-03	1.502226e-02
84            	-3.295040e-03	9.551235e-01	2.384866e-02	8.629289e-03	1.521937e-02
85            	-3.303861e-03	9.609762e-01	2.377680e-02	8.584537e-03	1.519226e-02
86            	-3.309750e-03	9.651814e-01	2.273851e-02	8.059504e-03	1.467900e-02
87            	-3.329739e-03	9.676872e-01	2.088752e-02	7.114022e-03	1.377350e-02
88            	-3.383221e-03	9.695060e-01	1.867275e-02	5.953155e-03	1.271960e-02
89            	-3.466489e-03	9.697358e-01	1.809883e-02	5.582926e-03	1.251591e-02
90            	-3.565287e-03	9.681703e-01	2.059935e-02	6.734387e-03	1.386496e-02
91            	-3.634027e-03	9.637239e-01	2.489026e-02	8.811103e-03	1.607916e-02
92            	-3.662064e-03	9.572278e-01	2.908288e-02	1.087938e-02	1.820351e-02
93            	-3.672164e-03	9.516192e-01	3.106160e-02	1.185864e-02	1.920297e-02
94            	-3.664467e-03	9.491751e-01	2.761802e-02	1.014454e-02	1.747348e-02
95            	-3.638906e-03	9.492006e-01	1.639619e-02	4.559189e-03	1.183700e-02
96            	-3.607864e-03	9.507021e-01	-4.648849e-04	-3.840307e-03	3.375422e-03
97            	-3.587374e-03	9.508792e-01	-1.724157e-02	-1.220816e-02	-5.033411e-03
98            	-3.591406e-03	9.502142e-01	-3.027122e-02	-1.872702e-02	-1.154420e-02
99            	-3.613061e-03	9.486840e-01	-3.694337e-02	-2.208475e-02	-1.485863e-02
100           	-3.652971e-03	9.473970e-01	-3.539306e-02	-2.134950e-02	-1.404356e-02
101           	-3.699136e-03	9.468330e-01	-2.600896e-02	-1.670361e-02	-9.305342e-03
102           	-3.735621e-03	9.468953e-01	-1.194318e-02	-9.707209e-03	-2.235968e-03
103           	-3.752430e-03	9.471673e-01	3.095218e-03	-2.204821e-03	5.300039e-03
104           	-3.739997e-03	9.461849e-01	1.414219e-02	3.331097e-03	1.081109e-02
105           	-3.706161e-03	9.435547e-01	1.871774e-02	5.652709e-03	1.306503e-02
106           	-3.655308e-03	9.390919e-01	1.741062e-02	5.050002e-03	1.236062e-02
107           	-3.595637e-03	9.342065e-01	1.085202e-02	1.830370e-03	9.021645e-03
108           	-3.538915e-03	9.306110e-01	1.389275e-05	-3.531968e-03	3.545861e-03
109           	-3.487694e-03	9.291829e-01	-1.483357e-02	-1.090448e-02	-3.929090e-03
110           	-3.444958e-03	9.286917e-01	-2.955002e-02	-1.821997e-02	-1.133005e-02
111           	-3.411387e-03	9.295415e-01	-4.304150e-02	-2.493214e-02	-1.810936e-02
112           	-3.380180e-03	9.307561e-01	-5.304751e-02	-2.990394e-02	-2.314358e-02
113           	-3.349281e-03	9.320787e-01	-5.867526e-02	-3.268691e-02	-2.598835e-02
114           	-3.322053e-03	9.339805e-01	-5.969640e-02	-3.317025e-02	-2.652615e-02
115           	-3.307420e-03	9.378828e-01	-5.487812e-02	-3.074648e-02	-2.413164e-02
116           	-3.300570e-03	9.428029e-01	-4.292244e-02	-2.476179e-02	-1.816065e-02
117           	-3.304990e-03	9.480594e-01	-2.371936e-02	-1.516467e-02	-8.554691e-03
118           	-3.326701e-03	9.533808e-01	1.273231e-03	-2.690085e-03	3.963316e-03
119           	-3.369872e-03	9.584931e-01	2.917618e-02	1.121822e-02	1.795796e-02
120           	-3.435551e-03	9.633959e-01	5.562231e-02	2.437560e-02	3.124671e-02
121           	-3.506062e-03	9.661991e-01	7.654611e-02	3.476699e-02	4.177912e-02
122           	-3.571035e-03	9.656563e-01	9.026993e-02	4.156393e-02	4.870600e-02
123           	-3.636717e-03	9.623614e-01	9.463370e-02	4.368013e-02	5.095356e-02
124           	-3.701549e-03	9.565808e-01	8.595152e-02	3.927421e-02	4.667731e-02
125           	-3.759924e-03	9.500308e-01	6.454617e-02	2.851316e-02	3.603301e-02
126           	-3.810292e-03	9.451582e-01	3.715024e-02	1.476483e-02	2.238541e-02
127           	-3.847558e-03	9.435619e-01	1.273129e-02	2.518085e-03	1.021320e-02
128           	-3.862093e-03	9.441038e-01	-2.115608e-03	-4.919897e-03	2.804289e-03
129           	-3.836035e-03	9.444882e-01	-5.970775e-03	-6.821422e-03	8.506471e-04
130           	-3.795209e-03	9.449484e-01	7.690297e-04	-3.410694e-03	4.179724e-03
131           	-3.766827e-03	9.467223e-01	1.566028e-02	4.063313e-03	1.159697e-02
132           	-3.755224e-03	9.491265e-01	3.375269e-02	1.312112e-02	2.063157e-02
133           	-3.753120e-03	9.517145e-01	5.060369e-02	2.154873e-02	2.905497e-02
134           	-3.751934e-03	9.540804e-01	6.303810e-02	2.776712e-02	3.527099e-02
135           	-3.746970e-03	9.562708e-01	7.033979e-02	3.142293e-02	3.891687e-02
136           	-3.732901e-03	9.587138e-01	7.257022e-02	3.255221e-02	4.001801e-02
137           	-3.698002e-03	9.604462e-01	7.048881e-02	3.154640e-02	3.894241e-02
138           	-3.636968e-03	9.606753e-01	6.477438e-02	2.875022e-02	3.602416e-02
139           	-3.552793e-03	9.595665e-01	5.610655e-02	2.450048e-02	3.160607e-02
140           	-3.469982e-03	9.582915e-01	4.734036e-02	2.020020e-02	2.714016e-02
141           	-3.401718e-03	9.575804e-01	3.986594e-02	1.653125e-02	2.333469e-02
142           	-3.349711e-03	9.571992e-01	3.361633e-02	1.345846e-02	2.015788e-02
143           	-3.308749e-03	9.563287e-01	2.928944e-02	1.133597e-02	1.795347e-02
144           	-3.280698e-03	9.541443e-01	2.633302e-02	9.885812e-03	1.644721e-02
145           	-3.279048e-03	9.510577e-01	2.640979e-02	9.925848e-03	1.648394e-02
146           	-3.300852e-03	9.480834e-01	2.846488e-02	1.093159e-02	1.753329e-02
147           	-3.348279e-03	9.479136e-01	3.093605e-02	1.211974e-02	1.881630e-02
148           	-3.408081e-03	9.507914e-01	3.362361e-02	1.340372e-02	2.021988e-02
149           	-3.467345e-03	9.554177e-01	3.587368e-02	1.446949e-02	2.140418e-02
150           	-3.514283e-03	9.587465e-01	3.580749e-02	1.438946e-02	2.141803e-02
151           	-3.544225e-03	9.595605e-01	3.198895e-02	1.245025e-02	1.953870e-02
152           	-3.551346e-03	9.563737e-01	2.348145e-02	8.189377e-03	1.529207e-02
153           	-3.544738e-03	9.501354e-01	1.046406e-02	1.687292e-03	8.776769e-03
154           	-3.549324e-03	9.434625e-01	-4.959901e-03	-6.029274e-03	1.069373e-03
155           	-3.572885e-03	9.387528e-01	-1.603212e-02	-1.158895e-02	-4.443176e-03
156           	-3.606973e-03	9.358375e-01	-1.961834e-02	-1.341614e-02	-6.202196e-03
157           	-3.647254e-03	9.344911e-01	-1.621874e-02	-1.175662e-02	-4.462115e-03
158           	-3.696289e-03	9.349378e-01	-6.001889e-03	-6.697233e-03	6.953446e-04
159           	-3.769392e-03	9.388980e-01	8.918790e-03	6.900031e-04	8.228787e-03
160           	-3.863140e-03	9.460466e-01	2.517071e-02	8.722215e-03	1.644850e-02
161           	-3.949600e-03	9.533502e-01	3.992784e-02	1.601432e-02	2.391352e-02
162           	-4.001744e-03	9.592751e-01	5.394057e-02	2.296854e-02	3.097203e-02
163           	-4.004590e-03	9.630644e-01	6.694693e-02	2.946887e-02	3.747805e-02
164           	-3.968728e-03	9.655138e-01	7.736388e-02	3.471321e-02	4.265067e-02
165           	-3.911481e-03	9.676226e-01	8.457342e-02	3.837523e-02	4.619819e-02
166           	-3.850015e-03	9.692754e-01	8.847831e-02	4.038914e-02	4.808917e-02
167           	-3.793242e-03	9.703064e-01	8.946782e-02	4.094067e-02	4.852715e-02
168           	-3.740523e-03	9.704991e-01	8.717140e-02	3.984518e-02	4.732622e-02
169           	-3.692641e-03	9.691623e-01	8.256347e-02	3.758909e-02	4.497438e-02
170           	-3.647402e-03	9.670733e-01	7.598850e-02	3.434685e-02	4.164165e-02
171           	-3.596597e-03	9.641827e-01	6.946899e-02	3.113790e-02	3.833109e-02
172           	-3.530836e-03	9.594251e-01	6.396232e-02	2.845032e-02	3.551199e-02
173           	-3.449566e-03	9.534398e-01	5.971018e-02	2.640553e-02	3.330466e-02
174           	-3.370915e-03	9.478564e-01	5.753427e-02	2.539622e-02	3.213805e-02
175           	-3.303852e-03	9.431439e-01	5.656228e-02	2.497729e-02	3.158499e-02
176           	-3.253536e-03	9.397298e-01	5.581517e-02	2.465405e-02	3.116112e-02
177           	-3.235558e-03	9.391692e-01	5.258708e-02	2.305798e-02	2.952910e-02
178           	-3.247829e-03	9.411068e-01	4.555720e-02	1.953077e-02	2.602643e-02
179           	-3.279345e-03	9.442780e-01	3.359757e-02	1.351944e-02	2.007813e-02
180           	-3.321351e-03	9.482792e-01	1.635806e-02	4.857678e-03	1.150038e-02
181           	-3.364760e-03	9.536674e-01	-4.348070e-03	-5.538795e-03	1.190725e-03
182           	-3.401027e-03	9.588929e-01	-2.303483e-02	-1.491844e-02	-8.116390e-03
183           	-3.434962e-03	9.634731e-01	-3.616777e-02	-2.151885e-02	-1.464892e-02
184           	-3.479648e-03	9.688160e-01	-3.945805e-02	-2.320867e-02	-1.624938e-02
185           	-3.558870e-03	9.781118e-01	-3.173229e-02	-1.942501e-02	-1.230727e-02
186           	-3.651029e-03	9.872524e-01	-1.624680e-02	-1.177443e-02	-4.472369e-03
187           	-3.709433e-03	9.883971e-01	3.488674e-03	-1.965096e-03	5.453770e-03
188           	-3.735531e-03	9.809216e-01	2.634751e-02	9.438226e-03	1.690929e-02
189           	-3.744839e-03	9.690194e-01	4.736673e-02	1.993853e-02	2.742820e-02
190           	-3.756138e-03	9.569654e-01	6.351017e-02	2.799894e-02	3.551122e-02
191           	-3.786102e-03	9.476460e-01	7.676066e-02	3.459423e-02	4.216643e-02
192           	-3.827811e-03	9.443066e-01	8.659677e-02	3.947058e-02	4.712620e-02
193           	-3.865037e-03	9.460021e-01	9.530660e-02	4.378827e-02	5.151834e-02
194           	-3.877787e-03	9.508044e-01	1.038711e-01	4.805777e-02	5.581335e-02
195           	-3.866932e-03	9.570324e-01	1.134633e-01	5.286471e-02	6.059857e-02
196           	-3.842149e-03	9.633196e-01	1.250766e-01	5.869614e-02	6.638044e-02
197           	-3.811070e-03	9.676725e-01	1.370269e-01	6.470238e-02	7.232452e-02
198           	-3.775914e-03	9.685242e-01	1.465085e-01	6.947834e-02	7.703017e-02
199           	-3.730357e-03	9.653724e-01	1.522690e-01	7.240415e-02	7.986486e-02
200           	-3.676085e-03	9.593852e-01	1.533898e-01	7.301883e-02	8.037100e-02
201           	-3.629195e-03	9.533225e-01	1.488434e-01	7.079251e-02	7.805090e-02
202           	-3.599936e-03	9.491987e-01	1.374733e-01	6.513674e-02	7.233661e-02
203           	-3.594120e-03	9.482659e-01	1.185893e-01	5.570054e-02	6.288878e-02
204           	-3.603989e-03	9.502972e-01	9.222673e-02	4.250938e-02	4.971735e-02
205           	-3.600478e-03	9.526674e-01	6.246846e-02	2.763375e-02	3.483471e-02
206           	-3.570935e-03	9.542429e-01	3.222810e-02	1.254311e-02	1.968498e-02
207           	-3.532367e-03	9.555735e-01	6.357308e-03	-3.537127e-04	6.711021e-03
208           	-3.505384e-03	9.582778e-01	-1.270616e-02	-9.858462e-03	-2.847695e-03
209           	-3.484185e-03	9.613045e-01	-2.362521e-02	-1.529679e-02	-8.328419e-03
210           	-3.458363e-03	9.636186e-01	-2.556367e-02	-1.624020e-02	-9.323471e-03
211           	-3.440170e-03	9.653382e-01	-1.664263e-02	-1.176149e-02	-4.881146e-03
212           	-3.437735e-03	9.652278e-01	-2.957442e-03	-4.916456e-03	1.959014e-03
213           	-3.454867e-03	9.618854e-01	1.041805e-02	1.754156e-03	8.663890e-03
214           	-3.492489e-03	9.553969e-01	1.854989e-02	5.782456e-03	1.276743e-02
215           	-3.533876e-03	9.483905e-01	1.573549e-02	4.333870e-03	1.140162e-02
216           	-3.587149e-03	9.451426e-01	-1.022143e-03	-4.098221e-03	3.076078e-03
217           	-3.634136e-03	9.443283e-01	-2.793642e-02	-1.760235e-02	-1.033407e-02
218           	-3.666349e-03	9.449962e-01	-5.592997e-02	-3.163133e-02	-2.429864e-02
219           	-3.685789e-03	9.466839e-01	-7.803439e-02	-4.270299e-02	-3.533141e-02
220           	-3.700096e-03	9.486755e-01	-8.904388e-02	-4.822203e-02	-4.082184e-02
221           	-3.716931e-03	9.509971e-01	-8.977492e-02	-4.860439e-02	-4.117053e-02
222           	-3.740428e-03	9.538046e-01	-8.141112e-02	-4.444599e-02	-3.696513e-02
223           	-3.779699e-03	9.579832e-01	-6.260603e-02	-3.508271e-02	-2.752332e-02
224           	-3.829924e-03	9.633464e-01	-3.360273e-02	-2.063129e-02	-1.297144e-02
225           	-3.872419e-03	9.677643e-01	8.026649e-04	-3.471087e-03	4.273751e-03
226           	-3.896698e-03	9.713978e-01	3.687498e-02	1.454079e-02	2.233419e-02
227           	-3.896797e-03	9.738572e-01	6.863703e-02	3.042172e-02	3.821531e-02
228           	-3.865446e-03	9.735628e-01	9.150952e-02	4.188932e-02	4.962021e-02
229           	-3.809105e-03	9.698220e-01	1.061947e-01	4.928822e-02	5.690643e-02
230           	-3.735040e-03	9.644298e-01	1.127958e-01	5.266285e-02	6.013293e-02
231           	-3.647187e-03	9.584296e-01	1.108669e-01	5.178624e-02	5.908062e-02
232           	-3.558727e-03	9.535534e-01	1.024678e-01	4.767517e-02	5.479262e-02
233           	-3.473517e-03	9.501650e-01	9.094415e-02	4.199856e-02	4.894559e-02
234           	-3.395925e-03	9.478909e-01	8.040579e-02	3.680697e-02	4.359882e-02
235           	-3.330154e-03	9.458323e-01	7.421590e-02	3.377780e-02	4.043810e-02
236           	-3.275189e-03	9.433052e-01	7.255163e-02	3.300063e-02	3.955101e-02
237           	-3.230676e-03	9.397007e-01	7.351658e-02	3.352761e-02	3.998897e-02
238           	-3.202515e-03	9.354748e-01	7.438734e-02	3.399116e-02	4.039619e-02
239           	-3.197011e-03	9.312244e-01	7.258431e-02	3.309515e-02	3.948917e-02
240           	-3.216029e-03	9.291255e-01	6.724973e-02	3.040884e-02	3.684089e-02
241           	-3.260562e-03	9.298535e-01	5.884007e-02	2.615947e-02	3.268060e-02
242           	-3.323487e-03	9.332083e-01	4.921217e-02	2.128260e-02	2.792957e-02
243           	-3.385174e-03	9.376536e-01	4.025244e-02	1.674105e-02	2.351140e-02
244           	-3.445912e-03	9.427252e-01	3.156621e-02	1.233720e-02	1.922902e-02
245           	-3.518638e-03	9.492088e-01	2.214660e-02	7.554662e-03	1.459194e-02
246           	-3.600031e-03	9.561749e-01	1.268667e-02	2.743304e-03	9.943367e-03
247           	-3.674431e-03	9.614658e-01	5.468376e-03	-9.402430e-04	6.408619e-03
248           	-3.732264e-03	9.633586e-01	3.058654e-03	-2.202937e-03	5.261590e-03
249           	-3.763151e-03	9.601496e-01	7.047863e-03	-2.392199e-04	7.287083e-03
250           	-3.775658e-03	9.535236e-01	1.720566e-02	4.827174e-03	1.237849e-02
251           	-3.791524e-03	9.481886e-01	3.056076e-02	1.148886e-02	1.907190e-02
252           	-3.826492e-03	9.472115e-01	4.673562e-02	1.954132e-02	2.719430e-02
253           	-3.851842e-03	9.479737e-01	6.209471e-02	2.719551e-02	3.489919e-02
254           	-3.857188e-03	9.494943e-01	7.511357e-02	3.369960e-02	4.141397e-02
255           	-3.858336e-03	9.531607e-01	8.371573e-02	3.799953e-02	4.571620e-02
256           	-3.858535e-03	9.587938e-01	8.724425e-02	3.976359e-02	4.748066e-02
257           	-3.854163e-03	9.661463e-01	8.432357e-02	3.830762e-02	4.601595e-02
258           	-3.821103e-03	9.708170e-01	7.528366e-02	3.382073e-02	4.146293e-02
259           	-3.745749e-03	9.698667e-01	6.289667e-02	2.770259e-02	3.519408e-02
260           	-3.653740e-03	9.641313e-01	5.236205e-02	2.252728e-02	2.983476e-02
261           	-3.556107e-03	9.559084e-01	4.484685e-02	1.886732e-02	2.597953e-02
262           	-3.462418e-03	9.471160e-01	4.124464e-02	1.715990e-02	2.408474e-02
263           	-3.381535e-03	9.395669e-01	4.117691e-02	1.720692e-02	2.396999e-02
264           	-3.313454e-03	9.342297e-01	4.392198e-02	1.864753e-02	2.527444e-02
265           	-3.271851e-03	9.322134e-01	4.840327e-02	2.092978e-02	2.747348e-02
266           	-3.257960e-03	9.340277e-01	5.276444e-02	2.312426e-02	2.964018e-02
267           	-3.267305e-03	9.380193e-01	5.535821e-02	2.441180e-02	3.094641e-02
268           	-3.286092e-03	9.419022e-01	5.459867e-02	2.401324e-02	3.058543e-02
269           	-3.306382e-03	9.449171e-01	4.934478e-02	2.136601e-02	2.797877e-02
270           	-3.330229e-03	9.482810e-01	3.936790e-02	1.635372e-02	2.301418e-02
271           	-3.359360e-03	9.529387e-01	2.609417e-02	9.687725e-03	1.640645e-02
272           	-3.383043e-03	9.576627e-01	1.310977e-02	3.171843e-03	9.937929e-03
273           	-3.393300e-03	9.609661e-01	2.561354e-03	-2.112623e-03	4.673977e-03
274           	-3.412088e-03	9.645354e-01	-6.290684e-03	-6.557430e-03	2.667456e-04
275           	-3.430305e-03	9.662173e-01	-1.107381e-02	-8.967210e-03	-2.106600e-03
276           	-3.430462e-03	9.631654e-01	-1.057534e-02	-8.718130e-03	-1.857206e-03
277           	-3.419265e-03	9.559633e-01	-4.101870e-03	-5.470200e-03	1.368330e-03
278           	-3.420681e-03	9.472663e-01	7.494925e-03	3.267819e-04	7.168143e-03
279           	-3.457651e-03	9.403395e-01	2.193236e-02	7.508529e-03	1.442383e-02
280           	-3.524696e-03	9.356806e-01	3.677433e-02	1.486247e-02	2.191186e-02
281           	-3.612508e-03	9.344607e-01	4.940642e-02	2.109070e-02	2.831572e-02
282           	-3.708750e-03	9.369866e-01	5.879677e-02	2.568964e-02	3.310714e-02
283           	-3.794717e-03	9.417662e-01	6.576040e-02	2.908548e-02	3.667492e-02
284           	-3.854694e-03	9.470121e-01	7.020280e-02	3.124671e-02	3.895610e-02
285           	-3.890777e-03	9.533864e-01	7.316840e-02	3.269343e-02	4.047498e-02
286           	-3.916589e-03	9.616113e-01	7.265860e-02	3.241271e-02	4.024589e-02
287           	-3.924698e-03	9.695837e-01	6.853638e-02	3.034349e-02	3.819289e-02
288           	-3.904743e-03	9.734269e-01	6.205264e-02	2.712158e-02	3.493106e-02
289           	-3.837396e-03	9.725832e-01	5.512806e-02	2.372664e-02	3.140143e-02
290           	-3.751887e-03	9.681480e-01	5.026591e-02	2.138107e-02	2.888484e-02
291           	-3.647795e-03	9.616203e-01	4.761977e-02	2.016209e-02	2.745768e-02
292           	-3.556074e-03	9.563417e-01	4.697624e-02	1.993205e-02	2.704419e-02
293           	-3.491657e-03	9.536550e-01	4.763818e-02	2.032743e-02	2.731075e-02
294           	-3.445267e-03	9.525638e-01	4.870199e-02	2.090573e-02	2.779626e-02
295           	-3.405240e-03	9.516566e-01	4.958084e-02	2.138518e-02	2.819566e-02
296           	-3.365975e-03	9.499387e-01	4.944445e-02	2.135625e-02	2.808820e-02
297           	-3.324982e-03	9.467825e-01	4.842925e-02	2.088965e-02	2.753961e-02
298           	-3.284721e-03	9.427435e-01	4.695419e-02	2.019237e-02	2.676182e-02
299           	-3.260569e-03	9.396009e-01	4.389068e-02	1.868477e-02	2.520591e-02
300           	-3.263174e-03	9.388260e-01	3.798195e-02	1.572780e-02	2.225415e-02
301           	-3.277195e-03	9.389798e-01	2.947907e-02	1.146234e-02	1.801673e-02
302           	-3.278962e-03	9.374416e-01	2.013090e-02	6.786487e-03	1.334441e-02
303           	-3.260410e-03	9.333410e-01	1.201607e-02	2.747627e-03	9.268447e-03
304           	-3.230763e-03	9.282124e-01	6.150123e-03	-1.557011e-04	6.305824e-03
305           	-3.208099e-03	9.236680e-01	2.481831e-03	-1.967183e-03	4.449014e-03
306           	-3.204654e-03	9.212328e-01	8.403423e-04	-2.784483e-03	3.624826e-03
307           	-3.219655e-03	9.203655e-01	1.040348e-03	-2.699481e-03	3.739830e-03
308           	-3.251317e-03	9.199312e-01	2.630306e-03	-1.936164e-03	4.566470e-03
309           	-3.302199e-03	9.197905e-01	5.441993e-03	-5.812026e-04	6.023196e-03
310           	-3.365400e-03	9.200254e-01	9.024802e-03	1.147001e-03	7.877801e-03
311           	-3.434441e-03	9.210998e-01	1.307974e-02	3.105428e-03	9.974310e-03
312           	-3.518334e-03	9.247119e-01	1.833130e-02	5.647316e-03	1.268398e-02
313           	-3.620767e-03	9.314918e-01	2.557028e-02	9.164375e-03	1.640591e-02
314           	-3.720101e-03	9.387686e-01	3.326043e-02	1.291011e-02	2.035031e-02
315           	-3.804236e-03	9.453282e-01	4.201541e-02	1.720347e-02	2.481194e-02
316           	-3.868261e-03	9.507998e-01	5.198123e-02	2.212235e-02	2.985887e-02
317           	-3.899119e-03	9.534210e-01	6.080264e-02	2.650220e-02	3.430044e-02
318           	-3.901551e-03	9.550377e-01	6.831839e-02	3.025764e-02	3.806075e-02
319           	-3.885631e-03	9.569713e-01	7.355263e-02	3.289069e-02	4.066195e-02
320           	-3.862062e-03	9.596685e-01	7.589670e-02	3.408629e-02	4.181041e-02
321           	-3.828215e-03	9.635202e-01	7.549367e-02	3.391862e-02	4.157505e-02
322           	-3.786816e-03	9.677257e-01	7.312103e-02	3.277370e-02	4.034733e-02
323           	-3.732481e-03	9.715886e-01	7.018414e-02	3.135959e-02	3.882455e-02
324           	-3.665409e-03	9.737710e-01	6.718025e-02	2.992472e-02	3.725553e-02
325           	-3.594459e-03	9.738844e-01	6.449017e-02	2.865063e-02	3.583955e-02
326           	-3.529475e-03	9.725577e-01	6.126602e-02	2.710353e-02	3.416248e-02
327           	-3.476158e-03	9.702607e-01	5.667069e-02	2.485919e-02	3.181150e-02
328           	-3.439869e-03	9.678030e-01	4.937006e-02	2.124516e-02	2.812490e-02
329           	-3.411587e-03	9.646330e-01	4.114254e-02	1.715968e-02	2.398286e-02
330           	-3.388350e-03	9.611938e-01	3.386494e-02	1.354412e-02	2.032082e-02
331           	-3.366656e-03	9.576922e-01	2.887796e-02	1.107233e-02	1.780564e-02
332           	-3.356287e-03	9.559145e-01	2.635879e-02	9.823108e-03	1.653568e-02
333           	-3.361045e-03	9.562543e-01	2.576314e-02	9.520527e-03	1.624262e-02
334           	-3.377417e-03	9.574556e-01	2.596414e-02	9.604654e-03	1.635949e-02
335           	-3.392574e-03	9.572538e-01	2.603605e-02	9.625453e-03	1.641060e-02
336           	-3.392161e-03	9.539643e-01	2.366183e-02	8.438753e-03	1.522308e-02
337           	-3.369739e-03	9.472520e-01	1.856186e-02	5.911189e-03	1.265067e-02
338           	-3.351296e-03	9.399531e-01	1.234299e-02	2.820197e-03	9.522790e-03
339           	-3.365214e-03	9.356298e-01	7.184506e-03	2.270383e-04	6.957467e-03
340           	-3.429110e-03	9.374479e-01	4.054591e-03	-1.401815e-03	5.456406e-03
341           	-3.536732e-03	9.457020e-01	2.529492e-03	-2.271986e-03	4.801477e-03
342           	-3.662658e-03	9.584174e-01	3.704001e-03	-1.810657e-03	5.514658e-03
343           	-3.751448e-03	9.694792e-01	6.770813e-03	-3.660410e-04	7.136854e-03
344           	-3.782311e-03	9.753953e-01	1.143250e-02	1.933938e-03	9.498561e-03
345           	-3.766932e-03	9.759022e-01	1.597468e-02	4.220405e-03	1.175427e-02
346           	-3.739840e-03	9.731312e-01	1.975179e-02	6.136056e-03	1.361574e-02
347           	-3.722292e-03	9.689904e-01	2.335051e-02	7.952965e-03	1.539755e-02
348           	-3.732906e-03	9.662850e-01	2.551735e-02	9.025771e-03	1.649158e-02
349           	-3.755947e-03	9.641789e-01	2.596156e-02	9.224832e-03	1.673673e-02
350           	-3.771971e-03	9.613924e-01	2.472558e-02	8.590818e-03	1.613476e-02
351           	-3.774953e-03	9.576557e-01	2.248144e-02	7.465767e-03	1.501567e-02
352           	-3.768790e-03	9.542344e-01	1.946585e-02	5.964134e-03	1.350171e-02
353           	-3.764182e-03	9.526757e-01	1.575748e-02	4.114558e-03	1.164292e-02
354           	-3.765991e-03	9.535880e-01	1.148614e-02	1.977078e-03	9.509060e-03
355           	-3.770345e-03	9.561908e-01	6.922989e-03	-3.088500e-04	7.231839e-03
356           	-3.765318e-03	9.586473e-01	2.765883e-03	-2.382377e-03	5.148260e-03
357           	-3.742423e-03	9.606531e-01	-6.834357e-04	-4.084140e-03	3.400705e-03
358           	-3.699520e-03	9.608753e-01	-1.645289e-03	-4.522164e-03	2.876875e-03
359           	-3.638776e-03	9.598251e-01	-9.067767e-04	-4.092164e-03	3.185387e-03
360           	-3.568258e-03	9.580348e-01	1.223800e-03	-2.956358e-03	4.180158e-03
361           	-3.497655e-03	9.565449e-01	3.863932e-03	-1.565689e-03	5.429621e-03
362           	-3.434356e-03	9.555354e-01	6.980067e-03	5.567781e-05	6.924389e-03