# Force coefficients
# liftDir     : (0.000000e+00 0.000000e+00 1.000000e+00)
# dragDir     : (0.000000e+00 1.000000e+00 0.000000e+00)
# pitchAxis   : (1.000000e+00 0.000000e+00 0.000000e+00)
# magUInf     : 4.708437e-01
# lRef        : 4.000000e+00
# Aref        : 2.562000e-02
# CofR        : (0.000000e+00 0.000000e+00 0.000000e+00)
# Time        	Cm            	Cd            	Cl            	Cl(f)         	Cl(r)         
1             	-1.838233e-04	4.221383e-02	-4.597887e-03	-2.482767e-03	-2.115120e-03
2             	-2.138898e-03	5.475722e-01	-6.590152e-02	-3.508966e-02	-3.081186e-02
3             	-3.081574e-03	9.407527e-01	-7.223826e-02	-3.920070e-02	-3.303755e-02
4             	-2.902845e-03	1.036373e+00	-4.328016e-02	-2.454293e-02	-1.873724e-02
5             	-2.346731e-03	9.820339e-01	-5.418217e-03	-5.055839e-03	-3.623777e-04
6             	-1.979797e-03	9.036435e-01	1.501345e-02	5.526926e-03	9.486519e-03
7             	-1.651791e-03	8.140075e-01	3.786813e-02	1.728228e-02	2.058586e-02
8             	-1.566725e-03	7.591406e-01	4.583899e-02	2.135277e-02	2.448622e-02
9             	-1.642635e-03	7.403931e-01	4.768999e-02	2.220236e-02	2.548763e-02
10            	-1.776560e-03	7.479613e-01	4.524611e-02	2.084649e-02	2.439961e-02
11            	-1.910469e-03	7.638595e-01	4.142005e-02	1.879955e-02	2.262049e-02
12            	-2.055476e-03	7.857203e-01	3.567968e-02	1.578436e-02	1.989532e-02
13            	-2.220573e-03	8.151147e-01	2.531198e-02	1.043542e-02	1.487656e-02
14            	-2.321586e-03	8.345582e-01	1.241645e-02	3.886637e-03	8.529810e-03
15            	-2.389054e-03	8.421546e-01	9.638062e-04	-1.907150e-03	2.870957e-03
16            	-2.470600e-03	8.446200e-01	-8.536397e-03	-6.738799e-03	-1.797599e-03
17            	-2.570352e-03	8.457107e-01	-1.608764e-02	-1.061417e-02	-5.473470e-03
18            	-2.677726e-03	8.462279e-01	-2.155945e-02	-1.345745e-02	-8.101998e-03
19            	-2.781359e-03	8.460141e-01	-2.463636e-02	-1.509954e-02	-9.536823e-03
20            	-2.883602e-03	8.456704e-01	-2.462201e-02	-1.519461e-02	-9.427403e-03
21            	-2.989929e-03	8.462630e-01	-2.069797e-02	-1.333892e-02	-7.359058e-03
22            	-3.089363e-03	8.482156e-01	-1.249465e-02	-9.336687e-03	-3.157960e-03
23            	-3.167018e-03	8.514066e-01	-9.883143e-04	-3.661175e-03	2.672861e-03
24            	-3.215168e-03	8.551572e-01	1.136273e-02	2.466198e-03	8.896535e-03
25            	-3.245425e-03	8.590587e-01	2.366337e-02	8.586262e-03	1.507711e-02
26            	-3.269317e-03	8.629058e-01	3.562698e-02	1.454417e-02	2.108281e-02
27            	-3.289535e-03	8.661289e-01	4.594304e-02	1.968198e-02	2.626105e-02
28            	-3.306551e-03	8.688000e-01	5.374304e-02	2.356497e-02	3.017807e-02
29            	-3.316044e-03	8.702037e-01	5.910517e-02	2.623654e-02	3.286863e-02
30            	-3.318417e-03	8.706035e-01	6.241319e-02	2.788818e-02	3.452501e-02
31            	-3.317159e-03	8.702485e-01	6.419570e-02	2.878069e-02	3.541501e-02
32            	-3.317418e-03	8.694890e-01	6.524798e-02	2.930657e-02	3.594141e-02
33            	-3.322687e-03	8.685140e-01	6.643365e-02	2.989414e-02	3.653951e-02
34            	-3.332131e-03	8.671092e-01	6.833299e-02	3.083436e-02	3.749863e-02
35            	-3.340747e-03	8.650088e-01	7.128828e-02	3.230339e-02	3.898489e-02
36            	-3.343373e-03	8.622443e-01	7.561954e-02	3.446640e-02	4.115314e-02
37            	-3.339601e-03	8.590251e-01	8.171092e-02	3.751586e-02	4.419506e-02
38            	-3.333710e-03	8.560651e-01	8.992405e-02	4.162831e-02	4.829573e-02
39            	-3.328912e-03	8.539258e-01	9.992272e-02	4.663245e-02	5.329027e-02
40            	-3.329732e-03	8.529541e-01	1.107798e-01	5.206016e-02	5.871963e-02
41            	-3.341462e-03	8.533936e-01	1.221449e-01	5.773099e-02	6.441391e-02
42            	-3.359517e-03	8.544224e-01	1.333112e-01	6.329607e-02	7.001511e-02
43            	-3.382578e-03	8.564552e-01	1.436004e-01	6.841763e-02	7.518279e-02
44            	-3.406719e-03	8.595400e-01	1.525545e-01	7.287052e-02	7.968396e-02
45            	-3.439206e-03	8.649845e-01	1.596438e-01	7.638269e-02	8.326110e-02
46            	-3.480663e-03	8.724399e-01	1.643684e-01	7.870353e-02	8.566485e-02
47            	-3.518360e-03	8.790362e-01	1.672027e-01	8.008299e-02	8.711971e-02
48            	-3.544354e-03	8.831366e-01	1.691917e-01	8.105150e-02	8.814021e-02
49            	-3.557422e-03	8.844421e-01	1.706807e-01	8.178291e-02	8.889775e-02
50            	-3.558848e-03	8.830695e-01	1.710647e-01	8.197352e-02	8.909122e-02
51            	-3.552270e-03	8.796460e-01	1.699495e-01	8.142247e-02	8.852701e-02
52            	-3.540917e-03	8.751783e-01	1.673532e-01	8.013567e-02	8.721750e-02
53            	-3.523510e-03	8.700280e-01	1.637357e-01	7.834432e-02	8.539134e-02
54            	-3.504597e-03	8.656010e-01	1.601914e-01	7.659111e-02	8.360030e-02
55            	-3.497432e-03	8.642341e-01	1.576073e-01	7.530623e-02	8.230110e-02
56            	-3.506045e-03	8.664443e-01	1.566839e-01	7.483590e-02	8.184799e-02
57            	-3.530556e-03	8.715338e-01	1.565533e-01	7.474611e-02	8.180722e-02
58            	-3.559508e-03	8.773170e-01	1.565593e-01	7.472013e-02	8.183914e-02
59            	-3.582951e-03	8.823803e-01	1.564634e-01	7.464873e-02	8.181463e-02
60            	-3.591326e-03	8.857132e-01	1.560380e-01	7.442767e-02	8.161032e-02
61            	-3.576520e-03	8.862815e-01	1.554518e-01	7.414939e-02	8.130243e-02
62            	-3.537450e-03	8.840939e-01	1.546924e-01	7.380874e-02	8.088364e-02
63            	-3.481444e-03	8.800687e-01	1.534222e-01	7.322965e-02	8.019254e-02
64            	-3.417713e-03	8.754083e-01	1.509403e-01	7.205245e-02	7.888787e-02
65            	-3.358808e-03	8.719160e-01	1.467167e-01	6.999954e-02	7.671715e-02
66            	-3.308913e-03	8.700649e-01	1.402884e-01	6.683530e-02	7.345313e-02
67            	-3.270385e-03	8.695626e-01	1.324039e-01	6.293155e-02	6.947232e-02
68            	-3.245556e-03	8.703119e-01	1.244248e-01	5.896686e-02	6.545797e-02
69            	-3.239064e-03	8.726305e-01	1.172001e-01	5.536098e-02	6.183911e-02
70            	-3.250755e-03	8.763428e-01	1.110337e-01	5.226612e-02	5.876763e-02
71            	-3.271852e-03	8.806864e-01	1.055700e-01	4.951314e-02	5.605685e-02
72            	-3.294082e-03	8.846651e-01	1.006118e-01	4.701179e-02	5.359996e-02
73            	-3.315342e-03	8.871206e-01	9.662211e-02	4.499571e-02	5.162640e-02
74            	-3.333764e-03	8.869827e-01	9.463316e-02	4.398282e-02	5.065034e-02
75            	-3.346267e-03	8.835445e-01	9.540334e-02	4.435541e-02	5.104794e-02
76            	-3.363762e-03	8.786069e-01	9.836435e-02	4.581841e-02	5.254594e-02
77            	-3.396782e-03	8.744733e-01	1.024404e-01	4.782340e-02	5.461696e-02
78            	-3.452983e-03	8.730333e-01	1.062663e-01	4.968016e-02	5.658613e-02
79            	-3.532846e-03	8.749916e-01	1.084436e-01	5.068894e-02	5.775463e-02
80            	-3.636098e-03	8.804914e-01	1.083827e-01	5.055527e-02	5.782746e-02
81            	-3.744825e-03	8.881333e-01	1.075592e-01	5.003480e-02	5.752445e-02
82            	-3.830726e-03	8.944034e-01	1.090247e-01	5.068160e-02	5.834305e-02
83            	-3.888674e-03	8.990243e-01	1.149269e-01	5.357478e-02	6.135213e-02
84            	-3.928722e-03	9.036050e-01	1.266945e-01	5.941854e-02	6.727598e-02
85            	-3.957110e-03	9.082168e-01	1.432971e-01	6.769142e-02	7.560564e-02
86            	-3.981678e-03	9.133396e-01	1.625661e-01	7.730138e-02	8.526474e-02
87            	-4.003818e-03	9.185283e-01	1.815050e-01	8.674869e-02	9.475632e-02
88            	-4.019394e-03	9.228776e-01	1.978899e-01	9.492554e-02	1.029643e-01
89            	-4.017269e-03	9.252732e-01	2.092593e-01	1.006124e-01	1.086469e-01
90            	-3.991151e-03	9.251479e-01	2.144968e-01	1.032573e-01	1.112396e-01
91            	-3.943334e-03	9.231470e-01	2.138357e-01	1.029745e-01	1.108612e-01
92            	-3.882326e-03	9.204315e-01	2.082815e-01	1.002584e-01	1.080231e-01
93            	-3.821621e-03	9.189913e-01	1.984558e-01	9.540627e-02	1.030495e-01
94            	-3.775918e-03	9.198812e-01	1.854291e-01	8.893862e-02	9.649045e-02
95            	-3.745343e-03	9.220651e-01	1.709061e-01	8.170769e-02	8.919837e-02
96            	-3.719280e-03	9.235958e-01	1.561226e-01	7.434200e-02	8.178056e-02
97            	-3.689190e-03	9.233046e-01	1.412913e-01	6.695649e-02	7.433486e-02
98            	-3.653889e-03	9.212608e-01	1.263605e-01	5.952637e-02	6.683415e-02
99            	-3.618607e-03	9.188739e-01	1.107251e-01	5.174394e-02	5.898115e-02
100           	-3.584530e-03	9.172968e-01	9.459975e-02	4.371534e-02	5.088440e-02
101           	-3.550394e-03	9.172654e-01	7.877259e-02	3.583590e-02	4.293669e-02
102           	-3.514608e-03	9.185431e-01	6.486628e-02	2.891853e-02	3.594775e-02
103           	-3.481099e-03	9.208207e-01	5.334554e-02	2.319167e-02	3.015387e-02
104           	-3.453167e-03	9.234306e-01	4.414005e-02	1.861686e-02	2.552319e-02
105           	-3.434403e-03	9.254977e-01	3.734118e-02	1.523619e-02	2.210499e-02
106           	-3.423794e-03	9.260866e-01	3.339573e-02	1.327407e-02	2.012166e-02
107           	-3.412841e-03	9.237852e-01	3.308918e-02	1.313175e-02	1.995743e-02
108           	-3.403346e-03	9.190275e-01	3.703894e-02	1.511613e-02	2.192282e-02
109           	-3.408791e-03	9.135443e-01	4.466868e-02	1.892555e-02	2.574313e-02
110           	-3.444000e-03	9.095781e-01	5.450655e-02	2.380928e-02	3.069728e-02
111           	-3.511933e-03	9.079591e-01	6.484421e-02	2.891017e-02	3.593404e-02
112           	-3.603379e-03	9.082615e-01	7.469093e-02	3.374209e-02	4.094885e-02
113           	-3.711610e-03	9.098263e-01	8.278313e-02	3.767996e-02	4.510318e-02
114           	-3.825273e-03	9.120773e-01	8.540513e-02	3.887729e-02	4.652784e-02
115           	-3.915188e-03	9.150398e-01	7.879004e-02	3.547983e-02	4.331021e-02
116           	-3.953130e-03	9.182126e-01	6.260847e-02	2.735110e-02	3.525736e-02
117           	-3.927854e-03	9.190601e-01	4.193088e-02	1.703759e-02	2.489329e-02
118           	-3.878832e-03	9.188920e-01	2.287542e-02	7.558877e-03	1.531654e-02
119           	-3.848043e-03	9.201403e-01	9.282173e-03	7.930437e-04	8.489129e-03
120           	-3.832075e-03	9.222226e-01	3.283909e-03	-2.190120e-03	5.474029e-03
121           	-3.829731e-03	9.249360e-01	5.176523e-03	-1.241469e-03	6.417992e-03
122           	-3.841168e-03	9.276555e-01	1.829841e-02	5.308035e-03	1.299037e-02
123           	-3.867727e-03	9.299576e-01	4.403890e-02	1.815172e-02	2.588717e-02
124           	-3.908569e-03	9.317682e-01	7.755526e-02	3.486906e-02	4.268620e-02
125           	-3.952886e-03	9.333235e-01	1.088832e-01	5.048872e-02	5.839449e-02
126           	-3.988963e-03	9.340814e-01	1.321617e-01	6.209189e-02	7.006982e-02
127           	-4.018989e-03	9.345461e-01	1.473350e-01	6.964850e-02	7.768648e-02
128           	-4.042822e-03	9.349201e-01	1.563072e-01	7.411079e-02	8.219644e-02
129           	-4.055797e-03	9.346692e-01	1.600564e-01	7.597242e-02	8.408401e-02
130           	-4.071069e-03	9.349687e-01	1.584563e-01	7.515709e-02	8.329922e-02
131           	-4.098192e-03	9.367358e-01	1.521431e-01	7.197335e-02	8.016974e-02
132           	-4.129710e-03	9.396409e-01	1.432807e-01	6.751065e-02	7.577007e-02
133           	-4.152114e-03	9.418964e-01	1.342595e-01	6.297762e-02	7.128184e-02
134           	-4.160770e-03	9.435502e-01	1.256976e-01	5.868802e-02	6.700956e-02
135           	-4.150058e-03	9.431304e-01	1.186440e-01	5.517193e-02	6.347205e-02
136           	-4.122189e-03	9.401864e-01	1.135594e-01	5.265753e-02	6.090191e-02
137           	-4.085558e-03	9.353668e-01	1.111530e-01	5.149092e-02	5.966204e-02
138           	-4.052623e-03	9.298098e-01	1.115731e-01	5.173394e-02	5.983918e-02
139           	-4.030669e-03	9.246294e-01	1.143792e-01	5.315893e-02	6.122027e-02
140           	-4.014860e-03	9.197983e-01	1.182627e-01	5.511651e-02	6.314622e-02
141           	-3.997202e-03	9.149078e-01	1.228893e-01	5.744744e-02	6.544185e-02
142           	-3.983907e-03	9.111588e-01	1.288463e-01	6.043922e-02	6.840703e-02
143           	-3.989230e-03	9.106767e-01	1.359264e-01	6.397395e-02	7.195241e-02
144           	-4.018093e-03	9.142234e-01	1.426038e-01	6.728383e-02	7.532001e-02
145           	-4.063988e-03	9.209294e-01	1.468359e-01	6.935395e-02	7.748192e-02
146           	-4.108128e-03	9.283914e-01	1.468009e-01	6.929234e-02	7.750859e-02
147           	-4.127530e-03	9.337301e-01	1.427479e-01	6.724642e-02	7.550148e-02
148           	-4.110260e-03	9.356910e-01	1.353551e-01	6.356729e-02	7.178781e-02
149           	-4.054684e-03	9.338359e-01	1.253900e-01	5.864032e-02	6.674968e-02
150           	-3.971200e-03	9.293654e-01	1.144451e-01	5.325133e-02	6.119373e-02
151           	-3.870389e-03	9.236694e-01	1.039049e-01	4.808204e-02	5.582282e-02
152           	-3.755152e-03	9.170265e-01	9.552916e-02	4.400943e-02	5.151973e-02
153           	-3.629550e-03	9.097661e-01	9.109230e-02	4.191660e-02	4.917570e-02
154           	-3.514530e-03	9.038416e-01	9.138237e-02	4.217666e-02	4.920572e-02
155           	-3.437921e-03	9.014850e-01	9.561175e-02	4.436796e-02	5.124380e-02
156           	-3.408379e-03	9.026896e-01	1.016432e-01	4.741322e-02	5.422998e-02
157           	-3.418626e-03	9.058462e-01	1.071762e-01	5.016949e-02	5.700674e-02
158           	-3.444142e-03	9.084103e-01	1.111996e-01	5.215564e-02	5.904393e-02
159           	-3.461298e-03	9.083420e-01	1.131398e-01	5.310862e-02	6.003121e-02
160           	-3.470929e-03	9.062362e-01	1.119060e-01	5.248205e-02	5.942391e-02
161           	-3.484539e-03	9.035773e-01	1.063770e-01	4.970397e-02	5.667305e-02
162           	-3.503982e-03	9.012651e-01	9.780067e-02	4.539635e-02	5.240432e-02
163           	-3.517735e-03	8.986439e-01	8.819632e-02	4.058043e-02	4.761590e-02
164           	-3.525537e-03	8.960277e-01	7.940138e-02	3.617515e-02	4.322623e-02
165           	-3.532182e-03	8.940410e-01	7.320148e-02	3.306856e-02	4.013292e-02
166           	-3.553335e-03	8.945407e-01	6.925184e-02	3.107258e-02	3.817925e-02
167           	-3.581291e-03	8.959979e-01	6.736078e-02	3.009910e-02	3.726168e-02
168           	-3.608570e-03	8.976298e-01	6.781471e-02	3.029879e-02	3.751593e-02
169           	-3.636516e-03	8.993015e-01	7.037681e-02	3.155189e-02	3.882492e-02
170           	-3.663262e-03	9.002507e-01	7.428826e-02	3.348087e-02	4.080739e-02
171           	-3.695215e-03	9.013025e-01	7.741836e-02	3.501396e-02	4.240439e-02
172           	-3.741437e-03	9.044111e-01	7.749196e-02	3.500454e-02	4.248741e-02
173           	-3.792673e-03	9.094912e-01	7.364996e-02	3.303231e-02	4.061765e-02
174           	-3.826274e-03	9.142368e-01	6.736440e-02	2.985593e-02	3.750847e-02
175           	-3.825976e-03	9.164372e-01	6.063689e-02	2.649247e-02	3.414442e-02
176           	-3.794109e-03	9.157177e-01	5.531445e-02	2.386311e-02	3.145133e-02
177           	-3.748381e-03	9.133398e-01	5.332374e-02	2.291349e-02	3.041025e-02
178           	-3.706573e-03	9.112631e-01	5.527361e-02	2.393023e-02	3.134338e-02
179           	-3.671088e-03	9.101481e-01	6.157264e-02	2.711523e-02	3.445741e-02
180           	-3.645515e-03	9.095681e-01	7.322933e-02	3.296915e-02	4.026018e-02
181           	-3.631769e-03	9.091991e-01	8.858087e-02	4.065867e-02	4.792221e-02
182           	-3.624034e-03	9.092164e-01	1.027180e-01	4.773497e-02	5.498304e-02
183           	-3.608503e-03	9.094062e-01	1.124252e-01	5.260411e-02	5.982112e-02
184           	-3.584475e-03	9.102290e-01	1.169495e-01	5.489030e-02	6.205925e-02
185           	-3.565446e-03	9.123213e-01	1.160275e-01	5.444831e-02	6.157920e-02
186           	-3.565926e-03	9.165189e-01	1.098216e-01	5.134485e-02	5.847670e-02
187           	-3.580116e-03	9.224660e-01	9.954001e-02	4.618989e-02	5.335012e-02
188           	-3.587068e-03	9.284153e-01	8.800310e-02	4.041448e-02	4.758862e-02
189           	-3.574307e-03	9.321565e-01	7.815248e-02	3.550193e-02	4.265054e-02
190           	-3.544245e-03	9.330746e-01	7.067385e-02	3.179268e-02	3.888117e-02
191           	-3.502248e-03	9.311913e-01	6.544276e-02	2.921913e-02	3.622363e-02
192           	-3.454534e-03	9.272997e-01	6.212184e-02	2.760638e-02	3.451545e-02
193           	-3.411426e-03	9.223150e-01	6.058057e-02	2.687886e-02	3.370171e-02
194           	-3.373058e-03	9.165400e-01	6.079503e-02	2.702446e-02	3.377057e-02
195           	-3.336935e-03	9.099058e-01	6.307610e-02	2.820111e-02	3.487498e-02
196           	-3.311241e-03	9.036083e-01	6.664743e-02	3.001247e-02	3.663496e-02
197           	-3.304291e-03	8.991460e-01	7.025905e-02	3.182523e-02	3.843382e-02
198           	-3.316584e-03	8.970034e-01	7.335751e-02	3.336217e-02	3.999534e-02
199           	-3.346121e-03	8.972865e-01	7.540264e-02	3.435520e-02	4.104744e-02
200           	-3.386031e-03	8.995025e-01	7.574044e-02	3.448419e-02	4.125625e-02
201           	-3.434959e-03	9.038003e-01	7.379825e-02	3.346417e-02	4.033409e-02
202           	-3.494134e-03	9.099577e-01	6.951371e-02	3.126272e-02	3.825099e-02
203           	-3.546933e-03	9.154955e-01	6.306297e-02	2.798455e-02	3.507842e-02
204           	-3.579882e-03	9.182972e-01	5.470829e-02	2.377426e-02	3.093403e-02
205           	-3.608118e-03	9.205767e-01	4.385444e-02	1.831910e-02	2.553534e-02
206           	-3.646814e-03	9.241239e-01	3.045076e-02	1.157856e-02	1.887219e-02
207           	-3.696365e-03	9.290292e-01	1.602055e-02	4.313908e-03	1.170664e-02
208           	-3.730371e-03	9.325290e-01	4.388593e-03	-1.536075e-03	5.924668e-03
209           	-3.738991e-03	9.348905e-01	-3.310756e-03	-5.394369e-03	2.083613e-03
210           	-3.711914e-03	9.355084e-01	-3.839813e-03	-5.631821e-03	1.792007e-03
211           	-3.650327e-03	9.340235e-01	3.214566e-03	-2.043044e-03	5.257610e-03
212           	-3.583360e-03	9.325082e-01	1.522520e-02	4.029240e-03	1.119596e-02
213           	-3.548258e-03	9.333252e-01	2.964617e-02	1.127483e-02	1.837134e-02
214           	-3.565879e-03	9.371638e-01	4.506408e-02	1.896616e-02	2.609792e-02
215           	-3.636510e-03	9.431260e-01	6.038450e-02	2.655574e-02	3.382876e-02
216           	-3.728741e-03	9.487199e-01	7.248318e-02	3.251285e-02	3.997033e-02
217           	-3.802202e-03	9.519299e-01	7.953899e-02	3.596729e-02	4.357170e-02
218           	-3.843912e-03	9.525272e-01	8.188354e-02	3.709786e-02	4.478568e-02
219           	-3.853745e-03	9.511280e-01	7.938665e-02	3.583958e-02	4.354707e-02
220           	-3.828299e-03	9.471816e-01	7.341102e-02	3.287721e-02	4.053381e-02
221           	-3.775698e-03	9.411640e-01	6.618144e-02	2.931502e-02	3.686642e-02
222           	-3.704508e-03	9.340161e-01	5.859760e-02	2.559429e-02	3.300331e-02
223           	-3.627726e-03	9.270734e-01	5.157839e-02	2.216147e-02	2.941692e-02
224           	-3.557247e-03	9.210814e-01	4.607391e-02	1.947971e-02	2.659420e-02
225           	-3.504982e-03	9.167020e-01	4.214337e-02	1.756671e-02	2.457667e-02
226           	-3.475853e-03	9.146820e-01	3.925852e-02	1.615341e-02	2.310511e-02
227           	-3.471588e-03	9.157196e-01	3.712767e-02	1.509225e-02	2.203542e-02
228           	-3.489184e-03	9.200418e-01	3.596765e-02	1.449464e-02	2.147301e-02
229           	-3.519412e-03	9.268082e-01	3.603471e-02	1.449794e-02	2.153677e-02
230           	-3.550851e-03	9.343719e-01	3.739692e-02	1.514761e-02	2.224931e-02
231           	-3.564254e-03	9.398020e-01	4.024245e-02	1.655697e-02	2.368548e-02
232           	-3.558544e-03	9.429197e-01	4.455522e-02	1.871907e-02	2.583616e-02
233           	-3.538163e-03	9.432039e-01	4.950311e-02	2.121339e-02	2.828972e-02
234           	-3.513087e-03	9.409688e-01	5.399464e-02	2.348423e-02	3.051041e-02
235           	-3.489570e-03	9.370213e-01	5.644548e-02	2.473317e-02	3.171231e-02
236           	-3.469548e-03	9.314582e-01	5.621954e-02	2.464022e-02	3.157932e-02
237           	-3.457072e-03	9.255693e-01	5.382204e-02	2.345395e-02	3.036809e-02
238           	-3.450760e-03	9.208750e-01	5.120259e-02	2.215054e-02	2.905206e-02
239           	-3.451922e-03	9.184904e-01	5.047629e-02	2.178622e-02	2.869007e-02
240           	-3.469184e-03	9.197991e-01	5.292317e-02	2.299240e-02	2.993077e-02
241           	-3.509929e-03	9.245948e-01	5.859405e-02	2.578710e-02	3.280696e-02
242           	-3.555751e-03	9.295747e-01	6.704418e-02	2.996634e-02	3.707784e-02
243           	-3.589661e-03	9.324092e-01	7.748678e-02	3.515373e-02	4.233305e-02
244           	-3.616365e-03	9.338786e-01	8.948569e-02	4.112648e-02	4.835921e-02
245           	-3.644143e-03	9.356869e-01	1.021494e-01	4.743058e-02	5.471886e-02
246           	-3.690883e-03	9.402529e-01	1.137244e-01	5.317130e-02	6.055307e-02
247           	-3.764413e-03	9.481803e-01	1.212320e-01	5.685158e-02	6.438041e-02
248           	-3.841820e-03	9.554371e-01	1.235330e-01	5.792468e-02	6.560831e-02
249           	-3.896679e-03	9.583080e-01	1.230469e-01	5.762678e-02	6.542014e-02
250           	-3.913651e-03	9.549653e-01	1.215382e-01	5.685543e-02	6.468273e-02
251           	-3.909241e-03	9.478425e-01	1.206432e-01	5.641237e-02	6.423085e-02
252           	-3.918301e-03	9.424108e-01	1.196846e-01	5.592401e-02	6.376062e-02
253           	-3.951441e-03	9.405319e-01	1.168078e-01	5.445247e-02	6.235535e-02
254           	-3.995845e-03	9.409487e-01	1.115670e-01	5.178768e-02	5.977937e-02
255           	-4.034932e-03	9.416607e-01	1.043023e-01	4.811620e-02	5.618606e-02
256           	-4.060913e-03	9.415570e-01	9.458499e-02	4.323158e-02	5.135341e-02
257           	-4.070911e-03	9.407935e-01	8.268672e-02	3.727245e-02	4.541427e-02
258           	-4.062620e-03	9.403582e-01	6.864781e-02	3.026129e-02	3.838653e-02
259           	-4.041376e-03	9.421329e-01	5.324807e-02	2.258266e-02	3.066541e-02
260           	-4.020554e-03	9.474574e-01	3.850183e-02	1.523036e-02	2.327147e-02
261           	-4.003252e-03	9.542922e-01	2.880593e-02	1.039971e-02	1.840622e-02
262           	-3.973541e-03	9.592722e-01	2.727224e-02	9.662577e-03	1.760966e-02
263           	-3.930572e-03	9.612460e-01	3.653230e-02	1.433558e-02	2.219672e-02
264           	-3.891230e-03	9.602373e-01	5.858711e-02	2.540233e-02	3.318478e-02
265           	-3.874593e-03	9.562562e-01	9.234049e-02	4.229565e-02	5.004484e-02
266           	-3.886425e-03	9.511041e-01	1.299007e-01	6.106393e-02	6.883678e-02
267           	-3.915896e-03	9.480992e-01	1.632314e-01	7.769980e-02	8.553159e-02
268           	-3.945332e-03	9.476102e-01	1.887082e-01	9.040876e-02	9.829942e-02
269           	-3.971145e-03	9.487931e-01	2.062237e-01	9.914070e-02	1.070830e-01
270           	-3.989669e-03	9.503428e-01	2.147487e-01	1.033847e-01	1.113640e-01
271           	-3.991514e-03	9.504541e-01	2.129060e-01	1.024615e-01	1.104445e-01
272           	-3.959444e-03	9.475982e-01	1.994616e-01	9.577138e-02	1.036903e-01
273           	-3.878880e-03	9.403988e-01	1.738623e-01	8.305225e-02	9.081001e-02
274           	-3.768892e-03	9.306397e-01	1.422834e-01	6.737283e-02	7.491061e-02
275           	-3.666612e-03	9.211359e-01	1.132096e-01	5.293820e-02	6.027143e-02
276           	-3.595589e-03	9.140694e-01	8.968584e-02	4.124733e-02	4.843851e-02
277           	-3.557369e-03	9.106900e-01	7.064318e-02	3.176422e-02	3.887896e-02
278           	-3.535374e-03	9.093429e-01	5.603358e-02	2.448142e-02	3.155216e-02
279           	-3.520595e-03	9.086624e-01	4.663123e-02	1.979502e-02	2.683621e-02
280           	-3.507841e-03	9.076917e-01	4.362010e-02	1.830221e-02	2.531789e-02
281           	-3.510523e-03	9.068046e-01	4.822949e-02	2.060422e-02	2.762527e-02
282           	-3.542154e-03	9.071796e-01	5.942241e-02	2.616905e-02	3.325336e-02
283           	-3.597871e-03	9.087291e-01	7.486528e-02	3.383477e-02	4.103051e-02
284           	-3.666104e-03	9.110708e-01	9.256049e-02	4.261414e-02	4.994635e-02
285           	-3.733730e-03	9.134724e-01	1.108699e-01	5.170121e-02	5.916867e-02
286           	-3.790076e-03	9.156609e-01	1.281141e-01	6.026699e-02	6.784715e-02
287           	-3.830471e-03	9.173971e-01	1.433794e-01	6.785922e-02	7.552016e-02
288           	-3.856983e-03	9.190719e-01	1.562747e-01	7.428035e-02	8.199432e-02
289           	-3.876188e-03	9.211811e-01	1.671403e-01	7.969396e-02	8.744634e-02
290           	-3.885401e-03	9.230018e-01	1.749176e-01	8.357342e-02	9.134422e-02
291           	-3.881721e-03	9.234289e-01	1.789099e-01	8.557325e-02	9.333670e-02
292           	-3.862742e-03	9.223803e-01	1.792621e-01	8.576830e-02	9.349378e-02
293           	-3.833898e-03	9.213383e-01	1.763933e-01	8.436277e-02	9.203057e-02
294           	-3.803480e-03	9.213164e-01	1.702118e-01	8.130241e-02	8.890937e-02
295           	-3.770985e-03	9.218978e-01	1.612023e-01	7.683015e-02	8.437212e-02
296           	-3.735344e-03	9.226038e-01	1.505335e-01	7.153138e-02	7.900207e-02
297           	-3.700783e-03	9.235671e-01	1.391482e-01	6.587333e-02	7.327490e-02
298           	-3.666922e-03	9.249034e-01	1.277722e-01	6.021918e-02	6.755303e-02
299           	-3.630339e-03	9.257496e-01	1.179298e-01	5.533458e-02	6.259525e-02
300           	-3.589486e-03	9.253014e-01	1.095394e-01	5.118021e-02	5.835918e-02
301           	-3.548189e-03	9.225541e-01	1.041973e-01	4.855047e-02	5.564684e-02
302           	-3.516412e-03	9.183272e-01	1.023052e-01	4.763617e-02	5.466900e-02
303           	-3.504704e-03	9.149059e-01	1.030651e-01	4.802783e-02	5.503724e-02
304           	-3.522399e-03	9.140730e-01	1.064705e-01	4.971288e-02	5.675767e-02
305           	-3.564410e-03	9.161473e-01	1.114777e-01	5.217444e-02	5.930326e-02
306           	-3.625837e-03	9.205290e-01	1.164591e-01	5.460373e-02	6.185541e-02
307           	-3.703228e-03	9.267192e-01	1.194200e-01	5.600676e-02	6.341321e-02
308           	-3.774934e-03	9.321867e-01	1.177930e-01	5.512156e-02	6.267143e-02
309           	-3.839783e-03	9.376264e-01	1.117945e-01	5.205749e-02	5.973706e-02
310           	-3.892095e-03	9.428110e-01	1.012970e-01	4.675639e-02	5.454058e-02
311           	-3.915954e-03	9.460671e-01	8.782816e-02	3.999813e-02	4.783003e-02
312           	-3.904482e-03	9.462458e-01	7.404864e-02	3.311984e-02	4.092880e-02
313           	-3.850507e-03	9.422657e-01	6.235392e-02	2.732645e-02	3.502747e-02
314           	-3.775114e-03	9.360545e-01	5.575643e-02	2.410310e-02	3.165333e-02
315           	-3.705327e-03	9.309509e-01	5.518302e-02	2.388618e-02	3.129684e-02
316           	-3.655026e-03	9.285467e-01	5.876002e-02	2.572499e-02	3.303504e-02
317           	-3.625727e-03	9.282319e-01	6.430732e-02	2.852793e-02	3.577939e-02
318           	-3.615482e-03	9.290989e-01	7.025235e-02	3.151069e-02	3.874166e-02
319           	-3.617905e-03	9.305092e-01	7.552794e-02	3.414606e-02	4.138187e-02
320           	-3.622790e-03	9.316328e-01	7.961957e-02	3.618700e-02	4.343257e-02
321           	-3.631511e-03	9.321120e-01	8.206991e-02	3.740344e-02	4.466646e-02
322           	-3.649451e-03	9.321092e-01	8.299397e-02	3.784754e-02	4.514644e-02
323           	-3.678062e-03	9.321407e-01	8.287978e-02	3.776183e-02	4.511795e-02
324           	-3.713023e-03	9.323233e-01	8.240559e-02	3.748977e-02	4.491582e-02
325           	-3.745938e-03	9.321588e-01	8.204228e-02	3.727520e-02	4.476708e-02
326           	-3.769201e-03	9.318244e-01	8.099405e-02	3.672782e-02	4.426623e-02
327           	-3.774320e-03	9.300441e-01	7.850231e-02	3.547684e-02	4.302548e-02
328           	-3.766117e-03	9.268042e-01	7.449625e-02	3.348201e-02	4.101424e-02
329           	-3.747595e-03	9.213203e-01	6.940759e-02	3.095620e-02	3.845139e-02
330           	-3.718250e-03	9.132050e-01	6.412925e-02	2.834638e-02	3.578288e-02
331           	-3.686971e-03	9.038610e-01	5.985490e-02	2.624048e-02	3.361442e-02
332           	-3.667643e-03	8.960488e-01	5.757371e-02	2.511921e-02	3.245450e-02
333           	-3.672449e-03	8.925565e-01	5.709414e-02	2.487462e-02	3.221952e-02
334           	-3.703574e-03	8.944704e-01	5.846415e-02	2.552850e-02	3.293565e-02
335           	-3.751562e-03	9.004238e-01	6.140551e-02	2.695119e-02	3.445431e-02
336           	-3.807589e-03	9.085211e-01	6.574829e-02	2.906655e-02	3.668173e-02
337           	-3.864295e-03	9.174989e-01	7.222240e-02	3.224690e-02	3.997549e-02
338           	-3.914699e-03	9.264112e-01	8.195965e-02	3.706513e-02	4.489453e-02
339           	-3.951024e-03	9.335137e-01	9.519336e-02	4.364566e-02	5.154771e-02
340           	-3.966128e-03	9.371006e-01	1.111881e-01	5.162792e-02	5.956018e-02
341           	-3.963744e-03	9.372227e-01	1.280090e-01	6.004074e-02	6.796823e-02
342           	-3.955077e-03	9.356966e-01	1.432406e-01	6.766525e-02	7.557540e-02
343           	-3.944220e-03	9.343208e-01	1.547787e-01	7.344515e-02	8.133359e-02
344           	-3.930776e-03	9.336846e-01	1.607842e-01	7.646132e-02	8.432287e-02
345           	-3.916066e-03	9.330260e-01	1.613717e-01	7.676976e-02	8.460190e-02
346           	-3.907306e-03	9.323783e-01	1.568786e-01	7.453200e-02	8.234661e-02
347           	-3.913827e-03	9.329613e-01	1.485134e-01	7.034289e-02	7.817054e-02
348           	-3.934155e-03	9.350383e-01	1.379843e-01	6.505801e-02	7.292632e-02
349           	-3.938499e-03	9.353192e-01	1.276387e-01	5.988086e-02	6.775786e-02
350           	-3.901630e-03	9.312191e-01	1.167273e-01	5.446201e-02	6.226527e-02
351           	-3.826199e-03	9.229835e-01	1.049096e-01	4.862858e-02	5.628098e-02
352           	-3.747376e-03	9.148690e-01	9.273558e-02	4.262041e-02	5.011516e-02
353           	-3.699297e-03	9.098876e-01	8.217721e-02	3.738931e-02	4.478790e-02
354           	-3.695195e-03	9.084794e-01	7.498871e-02	3.379916e-02	4.118955e-02
355           	-3.715507e-03	9.087002e-01	7.110595e-02	3.183747e-02	3.926848e-02
356           	-3.746951e-03	9.094252e-01	7.081852e-02	3.166231e-02	3.915621e-02
357           	-3.785404e-03	9.118583e-01	7.472975e-02	3.357947e-02	4.115028e-02
358           	-3.833011e-03	9.175151e-01	8.098777e-02	3.666087e-02	4.432690e-02
359           	-3.881526e-03	9.247723e-01	8.611546e-02	3.917620e-02	4.693926e-02
360           	-3.925904e-03	9.325478e-01	9.034215e-02	4.124517e-02	4.909698e-02
361           	-3.952837e-03	9.389952e-01	9.462969e-02	4.336201e-02	5.126768e-02
362           	-3.958050e-03	9.423706e-01	9.896418e-02	4.552404e-02	5.344014e-02
363           	-3.948285e-03	9.426224e-01	1.036216e-01	4.786250e-02	5.575908e-02
364           	-3.936899e-03	9.412730e-01	1.082622e-01	5.019418e-02	5.806798e-02