# Residuals   
# Time        	p             	Ux            	Uy            	Uz            
1             	1.000000e+00	3.174180e-01	1.000000e+00	2.781380e-01
2             	2.873200e-01	5.983010e-01	2.568790e-01	5.942940e-01
3             	4.154050e-02	4.819620e-01	1.517330e-01	4.570850e-01
4             	5.325900e-02	3.270280e-01	9.869700e-02	2.964370e-01
5             	9.018440e-02	2.537300e-01	7.556970e-02	2.377040e-01
6             	1.311430e-01	2.148240e-01	6.079480e-02	2.079520e-01
7             	1.430780e-01	1.824020e-01	5.206600e-02	1.751340e-01
8             	1.226610e-01	1.520720e-01	4.632820e-02	1.452680e-01
9             	1.068200e-01	1.261420e-01	4.075160e-02	1.156610e-01
10            	7.920600e-02	1.154090e-01	3.455840e-02	1.038360e-01
11            	6.264110e-02	1.060970e-01	2.902100e-02	9.890440e-02
12            	5.457970e-02	9.370530e-02	2.463610e-02	8.992440e-02
13            	5.334570e-02	7.960600e-02	2.146730e-02	7.834310e-02
14            	5.270410e-02	6.915090e-02	1.922280e-02	6.845160e-02
15            	5.669170e-02	6.312720e-02	1.770560e-02	6.201170e-02
16            	6.011860e-02	5.873160e-02	1.614590e-02	5.625690e-02
17            	6.178830e-02	5.445380e-02	1.468570e-02	5.100640e-02
18            	6.348930e-02	5.036230e-02	1.326610e-02	4.710330e-02
19            	6.506390e-02	4.721260e-02	1.185930e-02	4.477600e-02
20            	6.560720e-02	4.452030e-02	1.060750e-02	4.283320e-02
21            	6.452220e-02	4.217990e-02	9.721860e-03	4.079120e-02
22            	6.345070e-02	4.007560e-02	9.117610e-03	3.934230e-02
23            	6.407820e-02	3.846200e-02	8.764980e-03	3.855540e-02
24            	6.593600e-02	3.760500e-02	8.553490e-03	3.855680e-02
25            	6.893180e-02	3.686390e-02	8.195280e-03	3.833560e-02
26            	7.201620e-02	3.586290e-02	7.790710e-03	3.733050e-02
27            	7.418990e-02	3.474050e-02	7.475850e-03	3.562360e-02
28            	7.528310e-02	3.385960e-02	7.329720e-03	3.425100e-02
29            	7.694750e-02	3.345340e-02	7.310700e-03	3.379010e-02
30            	7.749460e-02	3.303610e-02	7.343910e-03	3.375670e-02
31            	7.567790e-02	3.237030e-02	7.393960e-03	3.364560e-02
32            	7.135060e-02	3.147260e-02	7.269210e-03	3.336950e-02
33            	6.806110e-02	3.059220e-02	7.140010e-03	3.291830e-02
34            	6.560670e-02	2.982020e-02	6.902180e-03	3.191130e-02
35            	6.417350e-02	2.888670e-02	6.586650e-03	3.046280e-02
36            	6.254110e-02	2.797900e-02	6.260910e-03	2.860280e-02
37            	6.194070e-02	2.696230e-02	6.041810e-03	2.689530e-02
38            	6.147690e-02	2.664660e-02	5.877970e-03	2.598070e-02
39            	6.163950e-02	2.671310e-02	5.735700e-03	2.541410e-02
40            	6.168200e-02	2.740290e-02	5.729110e-03	2.543030e-02
41            	6.134580e-02	2.944880e-02	5.915070e-03	2.639190e-02
42            	6.207560e-02	3.217460e-02	6.352200e-03	2.859740e-02
43            	6.494120e-02	3.492860e-02	7.024850e-03	3.116600e-02
44            	6.810160e-02	3.783400e-02	7.882970e-03	3.411060e-02
45            	7.011900e-02	4.020820e-02	8.673620e-03	3.724300e-02
46            	7.383720e-02	4.249540e-02	9.229640e-03	4.007350e-02
47            	7.500080e-02	4.343290e-02	9.710080e-03	4.247970e-02
48            	7.417960e-02	4.273620e-02	1.003050e-02	4.407890e-02
49            	7.419950e-02	4.253130e-02	1.041060e-02	4.577930e-02
50            	7.258800e-02	4.207960e-02	1.045210e-02	4.565620e-02
51            	7.099780e-02	4.154440e-02	1.017360e-02	4.401590e-02
52            	6.841600e-02	4.187250e-02	9.953590e-03	4.228730e-02
53            	6.603460e-02	4.298220e-02	9.972690e-03	4.189770e-02
54            	6.734210e-02	4.292400e-02	9.733420e-03	4.104930e-02
55            	6.905840e-02	4.170740e-02	9.386300e-03	4.044850e-02
56            	7.067720e-02	4.020390e-02	8.867850e-03	3.939700e-02
57            	7.147020e-02	3.955680e-02	8.622990e-03	3.834520e-02
58            	7.181740e-02	3.962730e-02	8.565310e-03	3.714910e-02
59            	7.160460e-02	3.987890e-02	8.758380e-03	3.620760e-02
60            	7.083330e-02	4.106980e-02	9.017790e-03	3.609990e-02
61            	6.953950e-02	4.175290e-02	9.198380e-03	3.643790e-02
62            	7.032310e-02	4.159900e-02	9.334410e-03	3.731920e-02
63            	7.216790e-02	4.090650e-02	9.435480e-03	3.772280e-02
64            	7.256380e-02	4.028220e-02	9.268710e-03	3.795120e-02
65            	7.322690e-02	3.988290e-02	9.137140e-03	3.807170e-02
66            	7.314330e-02	3.974190e-02	9.020750e-03	3.816480e-02
67            	7.358510e-02	3.979420e-02	9.054360e-03	3.856190e-02
68            	7.455890e-02	4.069900e-02	9.456550e-03	4.009090e-02
69            	7.584110e-02	4.297570e-02	1.018180e-02	4.197950e-02
70            	7.931640e-02	4.607250e-02	1.102560e-02	4.460090e-02
71            	8.176940e-02	5.007690e-02	1.188870e-02	4.721530e-02
72            	8.464110e-02	5.413800e-02	1.279850e-02	5.006440e-02
73            	8.594730e-02	5.795330e-02	1.382560e-02	5.303940e-02
74            	8.712220e-02	6.154400e-02	1.462660e-02	5.629430e-02
75            	8.745140e-02	6.370950e-02	1.505250e-02	5.887460e-02
76            	8.833490e-02	6.365830e-02	1.513300e-02	6.006820e-02
77            	8.916990e-02	6.037890e-02	1.463470e-02	5.857610e-02
78            	8.925710e-02	5.708880e-02	1.406590e-02	5.705520e-02
79            	8.755260e-02	5.458240e-02	1.358590e-02	5.589270e-02
80            	8.376050e-02	5.443090e-02	1.335560e-02	5.496630e-02
81            	7.960180e-02	5.427710e-02	1.313530e-02	5.313180e-02
82            	7.545690e-02	5.448420e-02	1.288870e-02	5.169310e-02
83            	7.294050e-02	5.563810e-02	1.259300e-02	5.083050e-02
84            	7.376360e-02	5.546540e-02	1.219900e-02	4.909230e-02
85            	7.685300e-02	5.400660e-02	1.216180e-02	4.851270e-02
86            	7.845030e-02	5.235200e-02	1.183280e-02	4.854340e-02
87            	7.856860e-02	5.048180e-02	1.150990e-02	4.776650e-02
88            	7.674480e-02	4.922410e-02	1.128780e-02	4.748160e-02
89            	7.570990e-02	5.023270e-02	1.143480e-02	4.824270e-02
90            	7.516270e-02	5.195480e-02	1.160500e-02	4.924610e-02
91            	7.508010e-02	5.270910e-02	1.162750e-02	4.975860e-02
92            	7.700780e-02	5.157710e-02	1.166420e-02	4.888230e-02
93            	7.988630e-02	4.989270e-02	1.181990e-02	4.836770e-02
94            	7.954050e-02	5.018110e-02	1.187540e-02	4.951690e-02
95            	7.756960e-02	5.001530e-02	1.148820e-02	4.949490e-02
96            	7.782140e-02	4.995100e-02	1.114470e-02	4.876360e-02
97            	7.900690e-02	4.974330e-02	1.082670e-02	4.859700e-02
98            	7.990310e-02	5.105870e-02	1.074890e-02	4.869570e-02
99            	7.932500e-02	5.339930e-02	1.103440e-02	4.986700e-02
100           	7.949090e-02	5.349250e-02	1.141320e-02	4.950180e-02
101           	7.956170e-02	5.387130e-02	1.170930e-02	4.926760e-02
102           	8.080380e-02	5.371490e-02	1.206500e-02	4.953190e-02
103           	8.188060e-02	5.214510e-02	1.230340e-02	4.945710e-02
104           	8.255740e-02	5.115460e-02	1.225900e-02	5.002920e-02
105           	7.958530e-02	5.038130e-02	1.212400e-02	4.944470e-02
106           	7.553100e-02	4.911950e-02	1.192230e-02	4.732330e-02
107           	7.485670e-02	4.800460e-02	1.148720e-02	4.565230e-02
108           	7.318400e-02	4.620860e-02	1.079550e-02	4.411860e-02
109           	7.274000e-02	4.475550e-02	1.010160e-02	4.191910e-02
110           	7.317290e-02	4.411020e-02	9.661020e-03	4.012700e-02
111           	7.468640e-02	4.433620e-02	9.302150e-03	3.868390e-02
112           	7.528410e-02	4.379860e-02	8.882470e-03	3.709110e-02
113           	7.467510e-02	4.228150e-02	8.669410e-03	3.578610e-02
114           	7.371250e-02	4.019390e-02	8.449500e-03	3.524330e-02
115           	7.242830e-02	3.838040e-02	8.324240e-03	3.544280e-02
116           	7.244880e-02	3.652780e-02	8.058200e-03	3.529800e-02
117           	7.249360e-02	3.500690e-02	7.813930e-03	3.459480e-02
118           	7.052910e-02	3.341630e-02	7.637440e-03	3.356760e-02
119           	6.783660e-02	3.283010e-02	7.656740e-03	3.297950e-02
120           	6.562980e-02	3.300550e-02	7.661320e-03	3.320840e-02
121           	6.381800e-02	3.385860e-02	7.724780e-03	3.336520e-02
122           	6.255910e-02	3.483730e-02	7.949510e-03	3.341390e-02
123           	6.208830e-02	3.569560e-02	8.314630e-03	3.410500e-02
124           	6.309660e-02	3.678290e-02	8.927360e-03	3.513530e-02
125           	6.284540e-02	3.812550e-02	9.563420e-03	3.687670e-02
126           	6.427600e-02	4.039730e-02	1.038100e-02	3.959800e-02
127           	6.649880e-02	4.488920e-02	1.157190e-02	4.338380e-02
128           	7.042640e-02	5.047450e-02	1.264160e-02	4.714090e-02
129           	7.511390e-02	5.668480e-02	1.373140e-02	5.161800e-02
130           	7.789830e-02	6.300300e-02	1.486420e-02	5.704840e-02
131           	8.048580e-02	6.974140e-02	1.613210e-02	6.318240e-02
132           	8.611560e-02	7.350810e-02	1.705570e-02	6.860590e-02
133           	9.026000e-02	7.362440e-02	1.732180e-02	7.016800e-02
134           	8.855970e-02	6.824520e-02	1.690890e-02	6.698430e-02
135           	8.405740e-02	6.081030e-02	1.624240e-02	6.288050e-02
136           	7.933570e-02	5.571990e-02	1.558040e-02	5.886070e-02
137           	7.434160e-02	5.524840e-02	1.488530e-02	5.593020e-02
138           	7.083840e-02	5.500920e-02	1.425440e-02	5.298940e-02
139           	6.843810e-02	5.526110e-02	1.342650e-02	5.161290e-02
140           	6.742730e-02	5.496980e-02	1.257670e-02	5.148950e-02
141           	6.690940e-02	5.322000e-02	1.162100e-02	5.038360e-02
142           	6.622110e-02	5.008260e-02	1.071090e-02	4.885580e-02
143           	6.570970e-02	4.698510e-02	1.016020e-02	4.720220e-02
144           	6.445600e-02	4.453570e-02	9.930430e-03	4.539640e-02
145           	6.353450e-02	4.243060e-02	1.003670e-02	4.409350e-02
146           	6.468170e-02	4.178840e-02	1.016670e-02	4.290810e-02
147           	6.689880e-02	4.224710e-02	1.005900e-02	4.210480e-02
148           	6.832120e-02	4.276100e-02	1.007360e-02	4.180740e-02
149           	6.822120e-02	4.323440e-02	1.008920e-02	4.192430e-02
150           	6.744390e-02	4.287610e-02	9.932610e-03	4.110330e-02
151           	6.625840e-02	4.190120e-02	9.741290e-03	4.013840e-02
152           	6.518840e-02	4.025690e-02	9.505990e-03	3.954370e-02
153           	6.371820e-02	3.824300e-02	9.213910e-03	3.901830e-02
154           	6.302580e-02	3.642850e-02	9.023670e-03	3.813390e-02
155           	6.378220e-02	3.601660e-02	8.906780e-03	3.802720e-02
156           	6.612700e-02	3.627080e-02	8.918680e-03	3.831420e-02
157           	6.850740e-02	3.683580e-02	9.145450e-03	3.838530e-02
158           	7.136740e-02	3.747480e-02	9.431250e-03	3.802930e-02
159           	7.627440e-02	3.841880e-02	9.837860e-03	3.787950e-02
160           	8.283590e-02	4.029230e-02	1.045870e-02	3.882770e-02
161           	8.792060e-02	4.310420e-02	1.127280e-02	4.185120e-02
162           	9.022600e-02	4.586070e-02	1.200940e-02	4.498560e-02
163           	9.150670e-02	4.893760e-02	1.264400e-02	4.827510e-02
164           	9.147800e-02	5.286720e-02	1.315260e-02	5.154100e-02
165           	9.053270e-02	5.693080e-02	1.340020e-02	5.377940e-02
166           	8.762330e-02	6.042580e-02	1.376920e-02	5.580340e-02
167           	8.753600e-02	6.277870e-02	1.419780e-02	5.755630e-02
168           	8.998620e-02	6.272860e-02	1.456360e-02	5.857920e-02
169           	8.992520e-02	6.175240e-02	1.495790e-02	5.876430e-02
170           	8.583360e-02	5.863940e-02	1.497720e-02	5.647860e-02
171           	7.747100e-02	5.547100e-02	1.450370e-02	5.261820e-02
172           	6.955420e-02	5.292300e-02	1.353810e-02	4.975940e-02
173           	6.466390e-02	4.961520e-02	1.245090e-02	4.771990e-02
174           	6.191690e-02	4.757100e-02	1.124320e-02	4.597410e-02
175           	6.058660e-02	4.610120e-02	1.008010e-02	4.374050e-02
176           	6.111950e-02	4.495810e-02	9.312430e-03	4.172840e-02
177           	6.281950e-02	4.403580e-02	8.809180e-03	4.031130e-02
178           	6.388170e-02	4.273050e-02	8.414090e-03	3.898230e-02
179           	6.486370e-02	4.097320e-02	8.125300e-03	3.775550e-02
180           	6.458890e-02	3.869060e-02	7.896010e-03	3.605560e-02
181           	6.321370e-02	3.651180e-02	7.614870e-03	3.373310e-02
182           	6.042970e-02	3.439090e-02	7.283900e-03	3.172990e-02
183           	5.679870e-02	3.199840e-02	6.983030e-03	2.999640e-02
184           	5.327160e-02	2.934810e-02	6.620960e-03	2.846960e-02
185           	5.118430e-02	2.717160e-02	6.315620e-03	2.723980e-02
186           	5.014100e-02	2.602360e-02	6.223860e-03	2.686370e-02
187           	4.935370e-02	2.605860e-02	6.233980e-03	2.700950e-02
188           	4.876260e-02	2.620270e-02	6.366350e-03	2.725210e-02
189           	4.846590e-02	2.691030e-02	6.716780e-03	2.865020e-02
190           	4.907850e-02	2.797910e-02	7.353830e-03	3.087650e-02
191           	5.082720e-02	2.939790e-02	8.070580e-03	3.379610e-02
192           	5.309690e-02	3.133310e-02	8.740170e-03	3.706160e-02
193           	5.573790e-02	3.359230e-02	9.192630e-03	4.018480e-02
194           	5.759840e-02	3.592840e-02	9.486030e-03	4.263850e-02
195           	5.985000e-02	3.796070e-02	9.637630e-03	4.415840e-02
196           	6.135090e-02	3.961540e-02	9.700720e-03	4.481740e-02
197           	6.224960e-02	4.107370e-02	9.773800e-03	4.489830e-02
198           	6.293570e-02	4.187470e-02	9.835260e-03	4.463220e-02
199           	6.257120e-02	4.212000e-02	9.863030e-03	4.422880e-02
200           	6.151660e-02	4.172730e-02	9.935270e-03	4.374180e-02
201           	6.013540e-02	4.028250e-02	1.008440e-02	4.266390e-02
202           	5.840540e-02	3.833400e-02	1.018830e-02	4.137880e-02
203           	5.668950e-02	3.745290e-02	1.030760e-02	4.046650e-02
204           	5.518160e-02	3.748410e-02	1.038480e-02	4.017190e-02
205           	5.400490e-02	3.786350e-02	1.038610e-02	3.978250e-02
206           	5.259890e-02	3.758180e-02	1.008790e-02	3.841900e-02
207           	5.090620e-02	3.643470e-02	9.473310e-03	3.651620e-02
208           	4.910210e-02	3.445470e-02	8.694600e-03	3.454340e-02
209           	4.694510e-02	3.244840e-02	7.877750e-03	3.249040e-02
210           	4.461980e-02	3.075110e-02	7.165490e-03	3.059480e-02
211           	4.224460e-02	2.921550e-02	6.610000e-03	2.894750e-02
212           	4.077810e-02	2.769880e-02	6.204190e-03	2.745520e-02
213           	4.013730e-02	2.646200e-02	5.931430e-03	2.639880e-02
214           	3.948330e-02	2.568850e-02	5.797060e-03	2.588160e-02
215           	3.864650e-02	2.515000e-02	5.739070e-03	2.571940e-02
216           	3.778810e-02	2.450720e-02	5.659810e-03	2.522080e-02
217           	3.719500e-02	2.381610e-02	5.581190e-03	2.445120e-02
218           	3.684110e-02	2.324350e-02	5.556040e-03	2.397010e-02
219           	3.651760e-02	2.277970e-02	5.613480e-03	2.379010e-02
220           	3.603340e-02	2.236180e-02	5.660710e-03	2.382030e-02
221           	3.583730e-02	2.187940e-02	5.671560e-03	2.385180e-02
222           	3.585170e-02	2.149470e-02	5.662310e-03	2.388760e-02
223           	3.537150e-02	2.112770e-02	5.597610e-03	2.383040e-02
224           	3.494220e-02	2.059420e-02	5.483150e-03	2.379850e-02
225           	3.489090e-02	2.015990e-02	5.390970e-03	2.377780e-02
226           	3.455520e-02	1.992480e-02	5.311370e-03	2.364350e-02
227           	3.388840e-02	1.996840e-02	5.253360e-03	2.337690e-02
228           	3.377870e-02	2.048440e-02	5.235410e-03	2.299510e-02
229           	3.435610e-02	2.124670e-02	5.287640e-03	2.283540e-02
230           	3.517020e-02	2.218030e-02	5.373790e-03	2.306950e-02
231           	3.587530e-02	2.364740e-02	5.548550e-03	2.372880e-02
232           	3.707780e-02	2.555020e-02	5.764660e-03	2.494050e-02
233           	3.859090e-02	2.741890e-02	5.956180e-03	2.613620e-02
234           	3.958510e-02	2.875760e-02	6.131670e-03	2.698860e-02
235           	4.040030e-02	2.933880e-02	6.284560e-03	2.728650e-02
236           	4.093470e-02	2.885030e-02	6.388710e-03	2.685770e-02
237           	4.046150e-02	2.750900e-02	6.427840e-03	2.597860e-02
238           	3.900350e-02	2.557570e-02	6.313690e-03	2.456430e-02
239           	3.703710e-02	2.396770e-02	6.061760e-03	2.334910e-02
240           	3.438530e-02	2.327150e-02	5.785420e-03	2.250740e-02
241           	3.197690e-02	2.294800e-02	5.539760e-03	2.173660e-02
242           	3.024790e-02	2.272430e-02	5.291840e-03	2.097670e-02
243           	2.911800e-02	2.251390e-02	5.036100e-03	2.007080e-02
244           	2.828620e-02	2.224940e-02	4.828700e-03	1.924720e-02
245           	2.777930e-02	2.189900e-02	4.651880e-03	1.869790e-02
246           	2.762710e-02	2.127170e-02	4.457910e-03	1.836320e-02
247           	2.754000e-02	2.027360e-02	4.247660e-03	1.812710e-02
248           	2.724480e-02	1.937980e-02	4.048940e-03	1.759230e-02
249           	2.668090e-02	1.859290e-02	3.867870e-03	1.702980e-02
250           	2.605620e-02	1.784690e-02	3.706210e-03	1.641160e-02
251           	2.538260e-02	1.713700e-02	3.566090e-03	1.579560e-02
252           	2.468340e-02	1.642400e-02	3.450640e-03	1.529690e-02
253           	2.402450e-02	1.580790e-02	3.360730e-03	1.494210e-02
254           	2.350380e-02	1.532930e-02	3.309450e-03	1.473520e-02
255           	2.305670e-02	1.500360e-02	3.291030e-03	1.469200e-02
256           	2.309520e-02	1.491880e-02	3.314230e-03	1.477640e-02
257           	2.336760e-02	1.524170e-02	3.381330e-03	1.518300e-02
258           	2.382830e-02	1.576270e-02	3.455050e-03	1.562620e-02
259           	2.434360e-02	1.639450e-02	3.538520e-03	1.602120e-02
260           	2.476020e-02	1.708200e-02	3.623890e-03	1.636430e-02
261           	2.519090e-02	1.764450e-02	3.698120e-03	1.674010e-02
262           	2.544960e-02	1.799030e-02	3.733200e-03	1.697800e-02
263           	2.547370e-02	1.808680e-02	3.713540e-03	1.699880e-02
264           	2.517850e-02	1.771740e-02	3.622930e-03	1.659970e-02
265           	2.449690e-02	1.704580e-02	3.498170e-03	1.611880e-02
266           	2.358900e-02	1.623500e-02	3.367010e-03	1.549660e-02
267           	2.254240e-02	1.541410e-02	3.255520e-03	1.486140e-02
268           	2.168560e-02	1.473380e-02	3.171990e-03	1.439740e-02
269           	2.094230e-02	1.433320e-02	3.146250e-03	1.443140e-02
270           	2.055080e-02	1.418860e-02	3.148900e-03	1.455890e-02
271           	2.040530e-02	1.420590e-02	3.167950e-03	1.470660e-02
272           	2.032110e-02	1.431120e-02	3.192570e-03	1.485670e-02
273           	2.026970e-02	1.444060e-02	3.204710e-03	1.499830e-02
274           	2.033600e-02	1.459670e-02	3.207820e-03	1.502100e-02
275           	2.034390e-02	1.463790e-02	3.194520e-03	1.486040e-02
276           	2.022880e-02	1.440740e-02	3.130560e-03	1.443360e-02
277           	1.992530e-02	1.410010e-02	3.017300e-03	1.391630e-02
278           	1.937610e-02	1.369260e-02	2.872460e-03	1.329220e-02
279           	1.858850e-02	1.304900e-02	2.722080e-03	1.265430e-02
280           	1.774250e-02	1.228170e-02	2.580230e-03	1.208740e-02
281           	1.700570e-02	1.151540e-02	2.476350e-03	1.158700e-02
282           	1.650830e-02	1.089170e-02	2.439790e-03	1.132020e-02
283           	1.621730e-02	1.063730e-02	2.450870e-03	1.147490e-02
284           	1.612650e-02	1.066690e-02	2.481350e-03	1.178220e-02
285           	1.624140e-02	1.095190e-02	2.516920e-03	1.213350e-02
286           	1.634870e-02	1.138260e-02	2.538450e-03	1.243040e-02
287           	1.658730e-02	1.184790e-02	2.538810e-03	1.260950e-02
288           	1.682000e-02	1.219980e-02	2.514730e-03	1.257690e-02
289           	1.689720e-02	1.222330e-02	2.466390e-03	1.226110e-02
290           	1.672790e-02	1.198360e-02	2.396580e-03	1.176110e-02
291           	1.627300e-02	1.138670e-02	2.319720e-03	1.106340e-02
292           	1.545650e-02	1.078590e-02	2.231690e-03	1.054110e-02
293           	1.474300e-02	1.013580e-02	2.151300e-03	1.013680e-02
294           	1.428270e-02	9.597180e-03	2.094380e-03	9.961750e-03
295           	1.409830e-02	9.183710e-03	2.075310e-03	9.870430e-03
296           	1.400130e-02	9.029860e-03	2.084430e-03	9.751530e-03
297           	1.381000e-02	9.120060e-03	2.086800e-03	9.611860e-03
298           	1.368840e-02	9.250530e-03	2.065010e-03	9.483970e-03
299           	1.347450e-02	9.383400e-03	2.019520e-03	9.489110e-03
300           	1.321250e-02	9.310560e-03	1.959960e-03	9.486610e-03
301           	1.281420e-02	9.072520e-03	1.904100e-03	9.423840e-03
302           	1.223150e-02	8.730220e-03	1.838280e-03	9.176310e-03
303           	1.157530e-02	8.205930e-03	1.745560e-03	8.692890e-03
304           	1.102700e-02	7.597140e-03	1.632360e-03	8.129270e-03
305           	1.056360e-02	6.943440e-03	1.515840e-03	7.576540e-03
306           	1.018150e-02	6.379330e-03	1.411570e-03	7.103260e-03
307           	9.852970e-03	6.009080e-03	1.326840e-03	6.673470e-03
308           	9.517010e-03	5.784960e-03	1.261260e-03	6.297030e-03
309           	9.156020e-03	5.605870e-03	1.207410e-03	5.975150e-03
310           	8.764840e-03	5.396270e-03	1.159580e-03	5.751370e-03
311           	8.369130e-03	5.180030e-03	1.110360e-03	5.579100e-03
312           	7.944470e-03	5.006810e-03	1.055870e-03	5.491550e-03
313           	7.508220e-03	4.805260e-03	1.007200e-03	5.384670e-03
314           	7.097120e-03	4.579900e-03	9.628190e-04	5.224230e-03
315           	6.735370e-03	4.364020e-03	9.252590e-04	5.047200e-03
316           	6.445110e-03	4.168800e-03	8.948680e-04	4.868370e-03
317           	6.216740e-03	4.001630e-03	8.656000e-04	4.688010e-03
318           	6.112700e-03	3.863500e-03	8.346200e-04	4.502830e-03
319           	6.076970e-03	3.754240e-03	8.054950e-04	4.316630e-03
320           	6.041760e-03	3.657320e-03	7.805650e-04	4.133390e-03
321           	5.949150e-03	3.551780e-03	7.577830e-04	3.949990e-03
322           	5.750890e-03	3.437120e-03	7.367760e-04	3.788310e-03
323           	5.544270e-03	3.303730e-03	7.160270e-04	3.632670e-03
324           	5.323830e-03	3.192330e-03	6.962260e-04	3.502650e-03
325           	5.110160e-03	3.154660e-03	6.756040e-04	3.434130e-03
326           	4.913950e-03	3.119620e-03	6.546550e-04	3.386470e-03
327           	4.740060e-03	3.071890e-03	6.366170e-04	3.338940e-03
328           	4.580270e-03	2.999150e-03	6.217060e-04	3.292890e-03
329           	4.430230e-03	2.910780e-03	6.072690e-04	3.241740e-03
330           	4.290210e-03	2.813410e-03	5.930850e-04	3.176050e-03
331           	4.151230e-03	2.716740e-03	5.778450e-04	3.098250e-03
332           	4.016920e-03	2.620330e-03	5.605210e-04	3.004130e-03
333           	3.886180e-03	2.516380e-03	5.414930e-04	2.877090e-03
334           	3.764730e-03	2.408060e-03	5.218130e-04	2.731820e-03
335           	3.652950e-03	2.293030e-03	5.053100e-04	2.585650e-03
336           	3.541080e-03	2.186170e-03	4.931180e-04	2.452110e-03
337           	3.425990e-03	2.098440e-03	4.837270e-04	2.354530e-03
338           	3.308690e-03	2.033380e-03	4.756960e-04	2.291690e-03
339           	3.208400e-03	1.998600e-03	4.676960e-04	2.250300e-03
340           	3.132290e-03	1.974450e-03	4.606870e-04	2.235940e-03
341           	3.065960e-03	1.968390e-03	4.540190e-04	2.237590e-03
342           	3.003080e-03	1.965660e-03	4.479980e-04	2.244550e-03
343           	2.932580e-03	1.960380e-03	4.433830e-04	2.261470e-03
344           	2.872020e-03	1.954030e-03	4.408560e-04	2.286070e-03
345           	2.830090e-03	1.943200e-03	4.411380e-04	2.312670e-03
346           	2.826950e-03	1.940850e-03	4.424930e-04	2.323470e-03
347           	2.838470e-03	1.923020e-03	4.427820e-04	2.302440e-03
348           	2.848200e-03	1.887250e-03	4.384440e-04	2.252540e-03
349           	2.834650e-03	1.833510e-03	4.294830e-04	2.180830e-03
350           	2.792190e-03	1.770020e-03	4.175140e-04	2.090110e-03
351           	2.732240e-03	1.700840e-03	4.042520e-04	1.975810e-03
352           	2.669000e-03	1.649510e-03	3.904420e-04	1.868760e-03
353           	2.606580e-03	1.608970e-03	3.759180e-04	1.775160e-03
354           	2.532430e-03	1.565600e-03	3.614290e-04	1.693420e-03
355           	2.459860e-03	1.516640e-03	3.475410e-04	1.636530e-03
356           	2.372320e-03	1.486060e-03	3.355860e-04	1.611410e-03
357           	2.281540e-03	1.466160e-03	3.230290e-04	1.601710e-03
358           	2.193420e-03	1.443530e-03	3.085100e-04	1.587040e-03
359           	2.103810e-03	1.411130e-03	2.943960e-04	1.553750e-03
360           	2.018780e-03	1.361100e-03	2.825630e-04	1.499050e-03
361           	1.938390e-03	1.291740e-03	2.712910e-04	1.419840e-03
362           	1.854140e-03	1.210650e-03	2.608240e-04	1.324300e-03
363           	1.771340e-03	1.131550e-03	2.512190e-04	1.225930e-03
364           	1.689460e-03	1.057480e-03	2.424020e-04	1.147230e-03
365           	1.618550e-03	1.000310e-03	2.338020e-04	1.089190e-03
366           	1.562680e-03	9.546340e-04	2.260580e-04	1.049170e-03
367           	1.531760e-03	9.266010e-04	2.195530e-04	1.021990e-03
368           	1.508240e-03	9.148120e-04	2.149440e-04	9.995000e-04
369           	1.482500e-03	9.144760e-04	2.123980e-04	9.820800e-04
370           	1.446800e-03	9.226880e-04	2.108600e-04	9.774970e-04
371           	1.415110e-03	9.358760e-04	2.104010e-04	9.978110e-04
372           	1.407840e-03	9.590970e-04	2.112680e-04	1.042510e-03
373           	1.429440e-03	9.814180e-04	2.142800e-04	1.093260e-03
374           	1.469660e-03	1.000450e-03	2.189900e-04	1.133600e-03
375           	1.512310e-03	1.009240e-03	2.231260e-04	1.157180e-03
376           	1.536790e-03	1.007640e-03	2.253840e-04	1.155030e-03
377           	1.544700e-03	9.900480e-04	2.241250e-04	1.124340e-03
378           	1.537720e-03	9.694200e-04	2.199800e-04	1.086420e-03
379           	1.523660e-03	9.486030e-04	2.140740e-04	1.045090e-03
380           	1.518810e-03	9.286090e-04	2.071040e-04	1.004060e-03
381           	1.520870e-03	9.119690e-04	2.002170e-04	9.633410e-04
382           	1.514680e-03	8.953830e-04	1.948890e-04	9.277530e-04
383           	1.496500e-03	8.802750e-04	1.916420e-04	8.968120e-04
384           	1.474030e-03	8.738330e-04	1.898590e-04	8.818510e-04
385           	1.450770e-03	8.742100e-04	1.879030e-04	8.809690e-04
386           	1.431140e-03	8.748710e-04	1.846220e-04	8.842890e-04
387           	1.409450e-03	8.683980e-04	1.800140e-04	8.813260e-04
388           	1.387270e-03	8.494360e-04	1.751040e-04	8.722930e-04
389           	1.358690e-03	8.187500e-04	1.699370e-04	8.500090e-04
390           	1.318520e-03	7.804450e-04	1.650170e-04	8.138110e-04
391           	1.273760e-03	7.410240e-04	1.597130e-04	7.690160e-04
392           	1.233900e-03	7.047220e-04	1.540680e-04	7.298530e-04
393           	1.198110e-03	6.748340e-04	1.487420e-04	6.969790e-04
394           	1.173550e-03	6.527810e-04	1.445430e-04	6.771670e-04
395           	1.157470e-03	6.413320e-04	1.411450e-04	6.668410e-04
396           	1.140270e-03	6.356120e-04	1.387910e-04	6.588790e-04
397           	1.116670e-03	6.321610e-04	1.375420e-04	6.512680e-04
398           	1.093490e-03	6.347870e-04	1.372660e-04	6.522720e-04
399           	1.076540e-03	6.454720e-04	1.377850e-04	6.708810e-04
400           	1.071940e-03	6.565740e-04	1.391680e-04	6.959430e-04
401           	1.079940e-03	6.659720e-04	1.406990e-04	7.226430e-04
402           	1.090310e-03	6.705240e-04	1.416900e-04	7.428310e-04
403           	1.094270e-03	6.670680e-04	1.414610e-04	7.490390e-04
404           	1.084350e-03	6.523720e-04	1.398530e-04	7.351760e-04
405           	1.067230e-03	6.366950e-04	1.367530e-04	7.076850e-04
406           	1.043840e-03	6.164400e-04	1.328920e-04	6.762890e-04
407           	1.017770e-03	5.966020e-04	1.285180e-04	6.454810e-04
408           	9.992290e-04	5.792170e-04	1.242300e-04	6.185030e-04
409           	9.881470e-04	5.670720e-04	1.198670e-04	5.979630e-04
410           	9.782130e-04	5.587900e-04	1.164280e-04	5.839050e-04
411           	9.649790e-04	5.521290e-04	1.147990e-04	5.716760e-04
412           	9.507920e-04	5.495870e-04	1.145000e-04	5.642920e-04
413           	9.394620e-04	5.517000e-04	1.145880e-04	5.671610e-04
414           	9.310590e-04	5.542470e-04	1.146090e-04	5.754380e-04
415           	9.238310e-04	5.544940e-04	1.142150e-04	5.850470e-04
416           	9.184600e-04	5.504470e-04	1.130010e-04	5.930300e-04
417           	9.080930e-04	5.402000e-04	1.110610e-04	5.928110e-04
418           	8.905980e-04	5.247070e-04	1.084120e-04	5.823330e-04
419           	8.657110e-04	5.048960e-04	1.054950e-04	5.623780e-04
420           	8.414190e-04	4.835200e-04	1.022240e-04	5.362730e-04
421           	8.156850e-04	4.644140e-04	9.910260e-05	5.085730e-04
422           	7.934780e-04	4.486310e-04	9.635660e-05	4.865790e-04
423           	7.791310e-04	4.396780e-04	9.411680e-05	4.722290e-04
424           	7.677240e-04	4.362660e-04	9.230700e-05	4.647150e-04
425           	7.558980e-04	4.341740e-04	9.127150e-05	4.606140e-04
426           	7.414480e-04	4.316600e-04	9.152520e-05	4.568300e-04
427           	7.290530e-04	4.322060e-04	9.256230e-05	4.589690e-04
428           	7.216200e-04	4.351780e-04	9.389640e-05	4.679920e-04
429           	7.206310e-04	4.387020e-04	9.511940e-05	4.793430e-04
430           	7.237780e-04	4.409170e-04	9.563480e-05	4.910300e-04
431           	7.244840e-04	4.396290e-04	9.522700e-05	4.985610e-04
432           	7.206370e-04	4.350510e-04	9.377740e-05	4.968400e-04
433           	7.106000e-04	4.257470e-04	9.155470e-05	4.855350e-04
434           	6.956790e-04	4.128490e-04	8.894600e-05	4.658190e-04
435           	6.767430e-04	3.978910e-04	8.626620e-05	4.424400e-04
436           	6.579970e-04	3.840950e-04	8.360990e-05	4.207820e-04
437           	6.429480e-04	3.724780e-04	8.104030e-05	4.032120e-04
438           	6.331560e-04	3.647340e-04	7.849540e-05	3.912350e-04
439           	6.255320e-04	3.603730e-04	7.630080e-05	3.845150e-04
440           	6.178110e-04	3.577470e-04	7.501960e-05	3.797130e-04
441           	6.094220e-04	3.565470e-04	7.473770e-05	3.765610e-04
442           	6.024780e-04	3.578670e-04	7.531410e-05	3.785950e-04
443           	5.984290e-04	3.604860e-04	7.621130e-05	3.847210e-04
444           	5.973570e-04	3.624680e-04	7.703290e-05	3.924040e-04
445           	5.965250e-04	3.629930e-04	7.732570e-05	3.993490e-04
446           	5.936150e-04	3.605860e-04	7.684510e-05	4.029450e-04