# Residuals   
# Time        	p             	Ux            	Uy            	Uz            
1             	1.000000e+00	1.000000e+00	1.000000e+00	1.000000e+00
2             	1.430890e-01	5.475890e-01	2.301880e-01	5.624020e-01
3             	1.491210e-01	4.977250e-01	1.594950e-01	4.475050e-01
4             	9.953920e-02	3.530080e-01	1.156950e-01	3.122870e-01
5             	9.273770e-02	2.821080e-01	8.738350e-02	2.635890e-01
6             	1.426670e-01	2.392890e-01	6.851950e-02	2.336240e-01
7             	9.135670e-02	2.015860e-01	5.774960e-02	2.026810e-01
8             	8.025800e-02	1.689330e-01	5.150870e-02	1.627740e-01
9             	7.145320e-02	1.417710e-01	4.388890e-02	1.407340e-01
10            	6.464170e-02	1.225130e-01	3.649810e-02	1.288650e-01
11            	6.480620e-02	1.121300e-01	3.045850e-02	1.163920e-01
12            	6.484690e-02	1.041050e-01	2.643080e-02	1.030090e-01
13            	6.239460e-02	9.195530e-02	2.322790e-02	9.141170e-02
14            	5.955020e-02	8.306940e-02	2.065520e-02	8.411140e-02
15            	5.215360e-02	7.432610e-02	1.859520e-02	7.821310e-02
16            	4.768680e-02	6.751760e-02	1.711460e-02	7.278030e-02
17            	4.479950e-02	6.079550e-02	1.590560e-02	6.676040e-02
18            	4.293170e-02	5.674920e-02	1.440420e-02	6.180870e-02
19            	4.299150e-02	5.415160e-02	1.326370e-02	5.839470e-02
20            	4.449390e-02	4.862430e-02	1.202210e-02	5.236220e-02
21            	4.603390e-02	4.401490e-02	1.042260e-02	4.565240e-02
22            	4.626130e-02	3.995830e-02	9.066900e-03	4.007840e-02
23            	4.703020e-02	3.695730e-02	8.148140e-03	3.683730e-02
24            	4.681360e-02	3.439720e-02	7.575230e-03	3.483950e-02
25            	4.725140e-02	3.271610e-02	7.190120e-03	3.321380e-02
26            	4.640290e-02	3.120940e-02	7.022200e-03	3.196660e-02
27            	4.523150e-02	3.029640e-02	7.076320e-03	3.137060e-02
28            	4.568790e-02	2.957810e-02	7.124940e-03	3.194340e-02
29            	4.758730e-02	2.947970e-02	6.989890e-03	3.193180e-02
30            	4.945240e-02	2.917880e-02	6.737000e-03	3.108080e-02
31            	5.153260e-02	2.887950e-02	6.600780e-03	2.978070e-02
32            	5.291070e-02	2.766170e-02	6.530280e-03	2.849840e-02
33            	5.652630e-02	2.712170e-02	6.600530e-03	2.785950e-02
34            	6.136850e-02	2.783030e-02	6.883150e-03	2.846260e-02
35            	6.796180e-02	2.968910e-02	7.356450e-03	3.065810e-02
36            	7.307920e-02	3.237740e-02	7.983250e-03	3.432570e-02
37            	7.422780e-02	3.439500e-02	8.624580e-03	3.762550e-02
38            	7.212940e-02	3.537230e-02	9.040370e-03	4.003370e-02
39            	7.218260e-02	3.587330e-02	9.236040e-03	4.050340e-02
40            	7.481690e-02	3.607670e-02	9.763210e-03	4.229710e-02
41            	7.870990e-02	3.736550e-02	1.023970e-02	4.432540e-02
42            	7.970570e-02	3.945280e-02	1.044350e-02	4.525030e-02
43            	7.616170e-02	4.009520e-02	1.037870e-02	4.376940e-02
44            	7.106950e-02	3.934550e-02	9.961480e-03	4.025730e-02
45            	6.853840e-02	3.706880e-02	9.248500e-03	3.646880e-02
46            	6.587830e-02	3.443300e-02	8.435330e-03	3.413640e-02
47            	6.624480e-02	3.137370e-02	7.705300e-03	3.210330e-02
48            	6.584590e-02	2.883260e-02	6.915080e-03	2.947140e-02
49            	6.275910e-02	2.680160e-02	6.133820e-03	2.669150e-02
50            	5.837160e-02	2.518560e-02	5.611500e-03	2.448750e-02
51            	5.502740e-02	2.514960e-02	5.446990e-03	2.398700e-02
52            	5.449460e-02	2.625870e-02	5.670550e-03	2.487500e-02
53            	5.638200e-02	2.682950e-02	5.938800e-03	2.564360e-02
54            	5.614620e-02	2.729750e-02	6.131820e-03	2.731620e-02
55            	5.663150e-02	2.748580e-02	6.126260e-03	2.771600e-02
56            	5.634520e-02	2.685270e-02	5.989540e-03	2.684250e-02
57            	5.608510e-02	2.592620e-02	5.831890e-03	2.584450e-02
58            	5.411250e-02	2.511340e-02	5.672180e-03	2.495240e-02
59            	5.280150e-02	2.482130e-02	5.630750e-03	2.466150e-02
60            	5.130860e-02	2.538600e-02	5.734310e-03	2.478180e-02
61            	5.066480e-02	2.700750e-02	5.968470e-03	2.513050e-02
62            	5.048130e-02	3.010810e-02	6.464810e-03	2.702380e-02
63            	5.314590e-02	3.248790e-02	7.031540e-03	2.880100e-02
64            	5.634940e-02	3.625460e-02	7.738900e-03	3.223300e-02
65            	5.961740e-02	3.894550e-02	8.377960e-03	3.493430e-02
66            	6.229510e-02	4.117970e-02	9.095780e-03	3.793320e-02
67            	6.480920e-02	4.327630e-02	9.766620e-03	4.021500e-02
68            	6.519960e-02	4.405290e-02	1.017370e-02	4.130820e-02
69            	6.488050e-02	4.291910e-02	1.001850e-02	4.069940e-02
70            	6.301030e-02	4.133950e-02	9.485000e-03	3.997570e-02
71            	6.168800e-02	4.037370e-02	9.094750e-03	3.893400e-02
72            	6.304860e-02	4.139300e-02	9.122290e-03	3.965910e-02
73            	6.162780e-02	4.315350e-02	9.336020e-03	4.131970e-02
74            	6.244490e-02	4.360520e-02	9.618800e-03	4.204710e-02
75            	6.335570e-02	4.328610e-02	9.836960e-03	4.185160e-02
76            	6.784800e-02	4.206730e-02	9.674780e-03	4.131530e-02
77            	7.224250e-02	4.073090e-02	9.197270e-03	4.072170e-02
78            	7.043620e-02	3.842340e-02	8.490530e-03	3.774840e-02
79            	6.482460e-02	3.577370e-02	8.023390e-03	3.518940e-02
80            	6.057820e-02	3.380410e-02	7.784930e-03	3.293250e-02
81            	5.684480e-02	3.284940e-02	7.640370e-03	3.130030e-02
82            	5.336500e-02	3.273430e-02	7.604290e-03	3.044480e-02
83            	5.460660e-02	3.306880e-02	7.579070e-03	3.023380e-02
84            	5.726980e-02	3.306140e-02	7.559550e-03	3.032190e-02
85            	5.938760e-02	3.308430e-02	7.473190e-03	3.079080e-02
86            	6.109090e-02	3.266710e-02	7.234020e-03	3.027240e-02
87            	5.943280e-02	3.091400e-02	6.820200e-03	2.897260e-02
88            	5.596860e-02	2.820020e-02	6.437050e-03	2.711150e-02
89            	5.413590e-02	2.560730e-02	6.115980e-03	2.534760e-02
90            	5.541960e-02	2.457860e-02	5.842060e-03	2.404690e-02
91            	5.510690e-02	2.570870e-02	5.965440e-03	2.414230e-02
92            	5.478590e-02	2.815290e-02	6.345650e-03	2.579590e-02
93            	5.577360e-02	3.035230e-02	6.748150e-03	2.806600e-02
94            	5.727020e-02	3.265430e-02	7.114510e-03	2.995550e-02
95            	5.857830e-02	3.585890e-02	7.529830e-03	3.237400e-02
96            	6.119820e-02	3.888590e-02	7.962080e-03	3.512580e-02
97            	6.225070e-02	4.066500e-02	8.441150e-03	3.738190e-02
98            	6.594940e-02	4.259530e-02	9.084740e-03	4.009260e-02
99            	7.196150e-02	4.296960e-02	9.592230e-03	4.206870e-02
100           	7.217630e-02	4.235440e-02	9.804040e-03	4.242210e-02
101           	7.249510e-02	4.213760e-02	9.935200e-03	4.177090e-02
102           	7.177910e-02	4.247230e-02	9.856500e-03	4.233260e-02
103           	6.982600e-02	4.138830e-02	9.335900e-03	4.075380e-02
104           	6.904980e-02	3.958250e-02	8.836360e-03	3.877280e-02
105           	6.770640e-02	3.968670e-02	8.727130e-03	3.781500e-02
106           	6.830360e-02	4.114820e-02	8.787650e-03	3.760940e-02
107           	6.840650e-02	4.059920e-02	8.650870e-03	3.613140e-02
108           	6.912000e-02	4.046040e-02	8.617020e-03	3.585350e-02
109           	6.876010e-02	3.998680e-02	8.593780e-03	3.604910e-02
110           	6.646980e-02	3.903110e-02	8.468610e-03	3.633800e-02
111           	6.513920e-02	3.735070e-02	8.204400e-03	3.501980e-02
112           	6.247270e-02	3.733480e-02	7.693920e-03	3.403030e-02
113           	5.775890e-02	3.854460e-02	7.544010e-03	3.317190e-02
114           	5.528640e-02	3.844950e-02	7.484110e-03	3.128250e-02
115           	5.611050e-02	3.675550e-02	7.443240e-03	2.996850e-02
116           	5.895880e-02	3.566960e-02	7.600650e-03	3.062790e-02
117           	6.334000e-02	3.568390e-02	7.865400e-03	3.183410e-02
118           	6.573640e-02	3.490960e-02	7.733680e-03	3.140970e-02
119           	6.407450e-02	3.349690e-02	7.350070e-03	2.998740e-02
120           	6.179570e-02	3.229830e-02	7.070600e-03	2.856810e-02
121           	6.138550e-02	3.185870e-02	6.957210e-03	2.819340e-02
122           	6.055090e-02	3.218410e-02	6.994060e-03	2.818580e-02
123           	6.031620e-02	3.514910e-02	7.441600e-03	3.023980e-02
124           	6.111410e-02	3.774130e-02	8.089210e-03	3.199530e-02
125           	6.222710e-02	3.974970e-02	8.711720e-03	3.414060e-02
126           	6.164260e-02	4.017990e-02	9.193270e-03	3.576960e-02
127           	6.095100e-02	4.185090e-02	9.808530e-03	3.872720e-02
128           	6.092690e-02	4.520500e-02	1.050130e-02	4.294180e-02
129           	6.618560e-02	4.706990e-02	1.094250e-02	4.448240e-02
130           	6.891120e-02	5.034360e-02	1.176440e-02	4.913990e-02
131           	7.419630e-02	5.290900e-02	1.240090e-02	5.151080e-02
132           	7.521410e-02	5.533120e-02	1.307310e-02	5.603440e-02
133           	7.419960e-02	5.739700e-02	1.367530e-02	5.901680e-02
134           	7.273240e-02	5.920590e-02	1.392630e-02	5.913030e-02
135           	7.241990e-02	5.944640e-02	1.384550e-02	5.639430e-02
136           	7.146500e-02	5.837860e-02	1.346440e-02	5.266930e-02
137           	7.172530e-02	5.501250e-02	1.273200e-02	4.954270e-02
138           	7.373100e-02	4.922450e-02	1.170440e-02	4.563280e-02
139           	7.156250e-02	4.329660e-02	1.051820e-02	4.110510e-02
140           	6.928440e-02	3.905380e-02	9.650950e-03	3.816750e-02
141           	6.659720e-02	3.633850e-02	8.746290e-03	3.532480e-02
142           	6.334380e-02	3.453360e-02	8.053170e-03	3.334210e-02
143           	6.151730e-02	3.365830e-02	7.602670e-03	3.166590e-02
144           	5.976060e-02	3.375440e-02	7.516600e-03	3.160970e-02
145           	5.956510e-02	3.385520e-02	7.679050e-03	3.230350e-02
146           	5.668310e-02	3.631420e-02	8.163710e-03	3.670860e-02
147           	5.542100e-02	3.759870e-02	8.239950e-03	3.845150e-02
148           	5.348480e-02	3.897130e-02	8.389250e-03	4.019750e-02
149           	5.349050e-02	4.160690e-02	8.656630e-03	4.178440e-02
150           	5.492530e-02	4.415340e-02	9.132010e-03	4.370030e-02
151           	5.780990e-02	4.595570e-02	9.823700e-03	4.612770e-02
152           	6.101070e-02	4.838680e-02	1.059800e-02	5.007570e-02
153           	6.299350e-02	5.110750e-02	1.148760e-02	5.515050e-02
154           	6.663540e-02	5.351900e-02	1.230840e-02	5.825810e-02
155           	7.355700e-02	5.573590e-02	1.269550e-02	5.925440e-02
156           	7.601600e-02	5.676590e-02	1.247840e-02	5.742350e-02
157           	7.490590e-02	5.516690e-02	1.197410e-02	5.377920e-02
158           	7.190230e-02	5.393050e-02	1.154440e-02	5.070450e-02
159           	7.059160e-02	5.475760e-02	1.124540e-02	4.874140e-02
160           	6.968710e-02	5.378440e-02	1.111670e-02	4.642910e-02
161           	6.943750e-02	5.141040e-02	1.094880e-02	4.446380e-02
162           	6.872780e-02	4.908400e-02	1.051770e-02	4.327560e-02
163           	6.714880e-02	4.513380e-02	9.791680e-03	4.218320e-02
164           	6.383890e-02	4.112700e-02	9.140710e-03	4.010690e-02
165           	6.226630e-02	3.710290e-02	8.256880e-03	3.639040e-02
166           	5.929100e-02	3.354880e-02	7.424050e-03	3.288690e-02
167           	5.589650e-02	3.116780e-02	6.845230e-03	3.069810e-02
168           	5.323910e-02	3.003440e-02	6.577870e-03	2.960120e-02
169           	5.097780e-02	2.954090e-02	6.507120e-03	2.891230e-02
170           	5.063340e-02	2.884910e-02	6.389950e-03	2.816770e-02
171           	4.998360e-02	2.862280e-02	6.306460e-03	2.854850e-02
172           	5.086900e-02	2.807000e-02	6.168540e-03	2.887670e-02
173           	5.108860e-02	2.791380e-02	6.216680e-03	2.936380e-02
174           	5.249430e-02	2.799720e-02	6.356030e-03	2.954520e-02
175           	5.333090e-02	2.872660e-02	6.548570e-03	2.980010e-02
176           	5.322010e-02	2.946960e-02	6.694780e-03	2.991880e-02
177           	5.240840e-02	3.120510e-02	7.000850e-03	3.146030e-02
178           	5.238690e-02	3.235060e-02	7.252240e-03	3.289320e-02
179           	5.420290e-02	3.333200e-02	7.412920e-03	3.411610e-02
180           	5.747120e-02	3.366190e-02	7.682230e-03	3.572750e-02
181           	6.001480e-02	3.437400e-02	8.129140e-03	3.776800e-02
182           	6.140810e-02	3.728420e-02	8.772880e-03	4.082220e-02
183           	6.460520e-02	3.943030e-02	9.176310e-03	4.187430e-02
184           	6.670440e-02	4.246570e-02	9.734680e-03	4.517930e-02
185           	6.919740e-02	4.619440e-02	1.028860e-02	4.744500e-02
186           	7.173630e-02	4.881700e-02	1.082340e-02	4.949860e-02
187           	7.517110e-02	5.153950e-02	1.149860e-02	5.210160e-02
188           	7.801590e-02	5.507550e-02	1.223170e-02	5.598930e-02
189           	8.132590e-02	5.733420e-02	1.265240e-02	5.919780e-02
190           	8.435200e-02	5.756130e-02	1.267860e-02	5.973830e-02
191           	8.446120e-02	5.579760e-02	1.290780e-02	5.768270e-02
192           	8.125490e-02	5.291940e-02	1.297320e-02	5.541620e-02
193           	7.659530e-02	5.110570e-02	1.266540e-02	5.359470e-02
194           	7.339620e-02	5.013270e-02	1.185630e-02	5.063560e-02
195           	7.141810e-02	4.804110e-02	1.075970e-02	4.709760e-02
196           	7.280790e-02	4.675050e-02	9.883320e-03	4.525260e-02
197           	7.207610e-02	4.521630e-02	9.580810e-03	4.443330e-02
198           	6.906650e-02	4.239510e-02	9.577760e-03	4.322990e-02
199           	6.643790e-02	4.087750e-02	9.474940e-03	4.135070e-02
200           	6.858180e-02	3.945730e-02	9.260190e-03	4.012050e-02
201           	6.528690e-02	3.748650e-02	8.864230e-03	3.854470e-02
202           	6.069710e-02	3.454130e-02	8.539430e-03	3.539700e-02
203           	5.942090e-02	3.240600e-02	8.238580e-03	3.299570e-02
204           	6.008140e-02	3.213590e-02	8.104180e-03	3.188660e-02
205           	6.213100e-02	3.232660e-02	7.919390e-03	3.139330e-02
206           	6.192540e-02	3.182970e-02	7.505760e-03	3.149310e-02
207           	5.666180e-02	3.162510e-02	7.203070e-03	3.310160e-02
208           	5.327800e-02	3.153840e-02	7.198040e-03	3.309170e-02
209           	5.336750e-02	3.247490e-02	7.425540e-03	3.251950e-02
210           	5.404410e-02	3.340850e-02	7.605850e-03	3.226100e-02
211           	5.499870e-02	3.423140e-02	7.907540e-03	3.221870e-02
212           	5.538160e-02	3.712650e-02	8.254110e-03	3.329910e-02
213           	5.888490e-02	4.028020e-02	8.679180e-03	3.506290e-02
214           	6.443430e-02	4.357950e-02	9.178230e-03	3.793640e-02
215           	6.941300e-02	4.586260e-02	9.619150e-03	4.122220e-02
216           	7.106720e-02	4.668960e-02	1.007660e-02	4.423980e-02
217           	7.366120e-02	4.687320e-02	1.027220e-02	4.610830e-02
218           	7.527460e-02	4.704610e-02	1.041390e-02	4.687000e-02
219           	7.204400e-02	4.658490e-02	1.038010e-02	4.664580e-02
220           	7.068710e-02	4.607220e-02	1.029100e-02	4.441490e-02
221           	6.864360e-02	4.851420e-02	1.026950e-02	4.347940e-02
222           	6.548870e-02	5.075520e-02	1.032890e-02	4.218760e-02
223           	6.587320e-02	5.113140e-02	1.031960e-02	4.026470e-02
224           	6.817670e-02	5.109640e-02	1.051190e-02	4.089360e-02
225           	6.846300e-02	4.971140e-02	1.049910e-02	4.155830e-02
226           	6.810440e-02	4.582460e-02	1.016030e-02	4.065270e-02
227           	6.411640e-02	4.195810e-02	9.541690e-03	3.839150e-02
228           	6.282740e-02	4.000230e-02	8.689440e-03	3.659640e-02
229           	5.916260e-02	3.791580e-02	7.913800e-03	3.498350e-02
230           	5.648660e-02	3.691810e-02	7.531540e-03	3.358000e-02
231           	5.693150e-02	3.524900e-02	7.300810e-03	3.109250e-02
232           	5.688770e-02	3.417700e-02	7.026260e-03	2.935550e-02
233           	5.644940e-02	3.331620e-02	6.659160e-03	2.833410e-02
234           	5.595440e-02	3.214480e-02	6.320120e-03	2.801290e-02
235           	5.590650e-02	3.073740e-02	6.025270e-03	2.734080e-02
236           	5.748730e-02	2.973220e-02	6.004210e-03	2.741600e-02
237           	5.667040e-02	2.931360e-02	6.143700e-03	2.789850e-02
238           	5.786800e-02	2.924350e-02	6.265670e-03	2.896440e-02
239           	5.555800e-02	2.910770e-02	6.280580e-03	2.867390e-02
240           	5.235430e-02	2.874520e-02	6.132120e-03	2.807380e-02
241           	5.050940e-02	2.830100e-02	6.033220e-03	2.769190e-02
242           	4.979490e-02	2.748330e-02	5.978780e-03	2.635250e-02
243           	4.863680e-02	2.766760e-02	6.148110e-03	2.613250e-02
244           	4.817010e-02	2.794110e-02	6.303860e-03	2.677090e-02
245           	4.756980e-02	2.773590e-02	6.331620e-03	2.668000e-02
246           	4.710790e-02	2.788950e-02	6.435440e-03	2.791380e-02
247           	5.005850e-02	2.838180e-02	6.666160e-03	2.957310e-02
248           	5.344680e-02	3.100800e-02	7.279890e-03	3.302080e-02
249           	5.732690e-02	3.486780e-02	8.158600e-03	3.624400e-02
250           	6.159550e-02	4.051810e-02	9.251920e-03	4.059780e-02
251           	6.655170e-02	4.664510e-02	1.051750e-02	4.506220e-02
252           	7.056700e-02	5.277670e-02	1.217310e-02	5.105040e-02
253           	7.517980e-02	5.906630e-02	1.363080e-02	5.697590e-02
254           	7.916400e-02	6.350820e-02	1.474960e-02	6.111340e-02
255           	8.154650e-02	6.761530e-02	1.530010e-02	6.186590e-02
256           	8.517420e-02	6.536350e-02	1.514990e-02	6.012280e-02
257           	8.917280e-02	5.884730e-02	1.458470e-02	5.692100e-02
258           	8.730380e-02	5.184230e-02	1.408190e-02	5.359570e-02
259           	8.033490e-02	5.028860e-02	1.341270e-02	5.089060e-02
260           	6.957890e-02	5.100690e-02	1.237970e-02	4.800450e-02
261           	6.558540e-02	5.012660e-02	1.121540e-02	4.496900e-02
262           	6.305470e-02	4.758260e-02	1.007120e-02	4.197560e-02
263           	6.347110e-02	4.377090e-02	9.222460e-03	4.003290e-02
264           	6.272980e-02	4.034950e-02	8.514100e-03	3.753870e-02
265           	6.213990e-02	3.803290e-02	8.153580e-03	3.598830e-02
266           	5.828430e-02	3.651550e-02	7.888420e-03	3.407480e-02
267           	5.370120e-02	3.552250e-02	7.753430e-03	3.238180e-02
268           	5.165810e-02	3.491210e-02	7.660820e-03	3.098260e-02
269           	5.315580e-02	3.473290e-02	7.856770e-03	3.083750e-02
270           	5.731290e-02	3.583160e-02	8.141820e-03	3.241510e-02
271           	6.078670e-02	3.685150e-02	8.638700e-03	3.527150e-02
272           	6.263820e-02	3.836660e-02	9.202070e-03	3.792080e-02
273           	6.474710e-02	4.006800e-02	9.824500e-03	3.986370e-02
274           	6.709140e-02	4.282260e-02	1.053140e-02	4.198980e-02
275           	6.779200e-02	4.983680e-02	1.164450e-02	4.702760e-02
276           	6.769170e-02	5.657010e-02	1.291440e-02	5.150680e-02
277           	6.965100e-02	6.176630e-02	1.425890e-02	5.662460e-02
278           	7.124810e-02	6.977170e-02	1.589910e-02	6.325770e-02
279           	7.630820e-02	7.429110e-02	1.701070e-02	6.546840e-02
280           	7.975200e-02	7.789780e-02	1.798600e-02	6.783310e-02
281           	8.209890e-02	7.656400e-02	1.839020e-02	6.933870e-02
282           	8.208460e-02	7.109270e-02	1.801070e-02	6.703780e-02
283           	7.777670e-02	6.389390e-02	1.720070e-02	6.022030e-02
284           	7.173450e-02	6.173050e-02	1.595040e-02	5.419780e-02
285           	6.806380e-02	6.321440e-02	1.477070e-02	5.078270e-02
286           	6.605500e-02	6.443150e-02	1.350880e-02	5.042040e-02
287           	6.699270e-02	6.331510e-02	1.264850e-02	5.178090e-02
288           	6.894750e-02	6.148640e-02	1.200240e-02	5.259060e-02
289           	7.102200e-02	5.820650e-02	1.138710e-02	5.189050e-02
290           	6.991510e-02	5.312700e-02	1.066230e-02	4.943020e-02
291           	6.437670e-02	4.771580e-02	9.942580e-03	4.454720e-02
292           	5.943990e-02	4.348860e-02	9.408590e-03	4.036030e-02
293           	5.442440e-02	3.946790e-02	8.674690e-03	3.643310e-02
294           	5.123930e-02	3.619530e-02	7.887410e-03	3.269780e-02
295           	5.027780e-02	3.524270e-02	7.401060e-03	3.132990e-02
296           	5.144820e-02	3.470000e-02	7.030470e-03	3.046070e-02
297           	5.129830e-02	3.386000e-02	6.724460e-03	2.992840e-02
298           	5.097820e-02	3.321180e-02	6.332460e-03	2.925090e-02
299           	5.060020e-02	3.104040e-02	6.115590e-03	2.793570e-02
300           	5.100310e-02	2.997560e-02	6.035920e-03	2.753300e-02
301           	5.048960e-02	2.939030e-02	5.931340e-03	2.729020e-02
302           	5.091620e-02	2.879470e-02	5.876820e-03	2.666760e-02
303           	5.214620e-02	2.855270e-02	5.915920e-03	2.618190e-02
304           	5.155230e-02	2.815320e-02	6.023320e-03	2.619150e-02
305           	5.305170e-02	2.746640e-02	6.102000e-03	2.630390e-02
306           	5.548780e-02	2.648840e-02	6.168240e-03	2.632310e-02
307           	5.689140e-02	2.682470e-02	6.390410e-03	2.803390e-02
308           	5.785630e-02	2.754640e-02	6.681140e-03	2.988860e-02
309           	5.792200e-02	2.912500e-02	7.019790e-03	3.160970e-02
310           	5.946160e-02	3.125170e-02	7.529400e-03	3.425080e-02
311           	6.190040e-02	3.383340e-02	8.206810e-03	3.764290e-02
312           	6.347360e-02	3.644980e-02	8.887390e-03	4.082380e-02
313           	6.372380e-02	4.008200e-02	9.632320e-03	4.496770e-02
314           	6.479150e-02	4.264640e-02	1.022200e-02	4.811020e-02
315           	6.763850e-02	4.420510e-02	1.051870e-02	5.047070e-02
316           	7.070860e-02	4.617990e-02	1.073950e-02	5.264440e-02
317           	7.381740e-02	4.745280e-02	1.102670e-02	5.388920e-02
318           	7.483450e-02	4.889600e-02	1.128710e-02	5.408170e-02
319           	7.603720e-02	4.858140e-02	1.132940e-02	5.306930e-02
320           	7.691500e-02	4.823020e-02	1.163210e-02	5.180240e-02
321           	7.895470e-02	4.845900e-02	1.210840e-02	5.170560e-02
322           	7.899070e-02	4.952710e-02	1.220800e-02	5.208830e-02
323           	7.570490e-02	5.044910e-02	1.182830e-02	5.418750e-02
324           	7.678590e-02	5.084090e-02	1.161900e-02	5.344240e-02
325           	7.840470e-02	4.932930e-02	1.156440e-02	5.114480e-02
326           	7.538880e-02	4.720610e-02	1.147120e-02	4.947270e-02
327           	6.795270e-02	4.510220e-02	1.134160e-02	4.823560e-02
328           	6.405920e-02	4.158330e-02	1.085330e-02	4.529710e-02
329           	6.110820e-02	4.053480e-02	1.033150e-02	4.338530e-02
330           	5.898520e-02	3.851990e-02	9.695780e-03	4.174600e-02
331           	5.697200e-02	3.542920e-02	8.826350e-03	3.905890e-02
332           	5.531100e-02	3.313520e-02	8.095300e-03	3.698090e-02
333           	5.490860e-02	3.199960e-02	7.679800e-03	3.539940e-02
334           	5.443750e-02	3.024370e-02	7.168350e-03	3.334050e-02
335           	5.398300e-02	2.933240e-02	6.829970e-03	3.222120e-02
336           	5.524920e-02	2.778200e-02	6.545610e-03	3.051840e-02
337           	5.610800e-02	2.601000e-02	6.525290e-03	2.872320e-02
338           	5.506400e-02	2.610990e-02	6.587080e-03	2.889530e-02
339           	5.431780e-02	2.747070e-02	6.685360e-03	2.921170e-02
340           	5.437850e-02	2.868430e-02	6.906610e-03	3.003000e-02
341           	5.398520e-02	3.047620e-02	7.317390e-03	3.161420e-02
342           	5.376940e-02	3.277140e-02	7.780300e-03	3.381820e-02
343           	5.428980e-02	3.533370e-02	8.356340e-03	3.632700e-02
344           	5.634720e-02	3.715890e-02	8.909590e-03	3.724550e-02
345           	6.003480e-02	4.012100e-02	9.701230e-03	3.985130e-02
346           	6.059980e-02	4.538510e-02	1.068280e-02	4.354360e-02
347           	6.292180e-02	5.144050e-02	1.166290e-02	4.722810e-02
348           	6.831060e-02	5.763310e-02	1.276840e-02	5.197730e-02
349           	7.562120e-02	6.225850e-02	1.377600e-02	5.567290e-02
350           	7.572270e-02	6.527590e-02	1.461460e-02	5.941210e-02
351           	8.070390e-02	6.457210e-02	1.517670e-02	6.225710e-02
352           	8.521850e-02	6.189700e-02	1.561270e-02	6.264010e-02
353           	8.306390e-02	5.966220e-02	1.558080e-02	6.012430e-02
354           	7.815380e-02	6.039090e-02	1.513690e-02	5.603300e-02
355           	7.278620e-02	6.148320e-02	1.449370e-02	5.255680e-02
356           	6.882480e-02	6.348130e-02	1.373780e-02	5.165080e-02
357           	6.839870e-02	6.290230e-02	1.290900e-02	5.226750e-02
358           	6.979980e-02	6.016160e-02	1.210750e-02	5.277530e-02
359           	6.763520e-02	5.554090e-02	1.117500e-02	5.121400e-02
360           	6.465650e-02	5.098180e-02	1.044340e-02	4.783080e-02
361           	6.135900e-02	4.700840e-02	9.911590e-03	4.326110e-02
362           	5.610980e-02	4.379470e-02	9.493730e-03	3.934730e-02
363           	5.384540e-02	4.095290e-02	8.711040e-03	3.621790e-02
364           	5.195440e-02	3.911120e-02	8.107920e-03	3.383200e-02
365           	5.251820e-02	3.820460e-02	7.748820e-03	3.312410e-02
366           	5.398460e-02	3.700220e-02	7.371990e-03	3.251580e-02
367           	5.554950e-02	3.558600e-02	7.220110e-03	3.183560e-02
368           	5.697920e-02	3.536590e-02	7.251510e-03	3.209700e-02
369           	5.749470e-02	3.536400e-02	7.386540e-03	3.193960e-02
370           	5.637790e-02	3.466550e-02	7.381400e-03	3.066810e-02
371           	5.428850e-02	3.408540e-02	7.287760e-03	3.019010e-02
372           	5.403430e-02	3.333570e-02	7.042930e-03	2.990460e-02
373           	5.293030e-02	3.222070e-02	6.856220e-03	2.996280e-02
374           	5.271490e-02	3.094290e-02	6.729940e-03	3.000730e-02
375           	5.250800e-02	3.148790e-02	6.832920e-03	3.167540e-02
376           	5.344940e-02	3.162460e-02	7.112540e-03	3.325850e-02
377           	5.406700e-02	3.220870e-02	7.642580e-03	3.492690e-02
378           	5.453840e-02	3.298060e-02	8.102140e-03	3.656930e-02
379           	5.674330e-02	3.362980e-02	8.417160e-03	3.814730e-02
380           	5.972620e-02	3.405730e-02	8.477560e-03	3.880360e-02
381           	6.164760e-02	3.405970e-02	8.425790e-03	3.867240e-02
382           	6.365220e-02	3.441880e-02	8.282670e-03	3.881660e-02
383           	6.578640e-02	3.504320e-02	8.254150e-03	3.811330e-02
384           	6.734420e-02	3.564290e-02	8.328530e-03	3.802180e-02
385           	6.873190e-02	3.599430e-02	8.390050e-03	3.821490e-02
386           	7.110800e-02	3.650240e-02	8.406420e-03	3.830670e-02
387           	7.497560e-02	3.840160e-02	8.654900e-03	4.037090e-02
388           	7.684810e-02	4.029960e-02	8.990010e-03	4.300590e-02
389           	7.675970e-02	3.928990e-02	8.894040e-03	4.259560e-02
390           	7.456290e-02	3.883120e-02	8.954240e-03	4.255490e-02
391           	7.101190e-02	3.775480e-02	8.829920e-03	4.238430e-02
392           	6.853560e-02	3.619590e-02	8.447090e-03	4.087000e-02
393           	6.672020e-02	3.694860e-02	8.356170e-03	4.077990e-02
394           	6.612030e-02	3.872850e-02	8.485170e-03	4.039920e-02
395           	6.496570e-02	4.069780e-02	8.809770e-03	4.061950e-02
396           	6.692310e-02	4.181330e-02	9.215170e-03	4.228000e-02
397           	6.891120e-02	4.407200e-02	9.931450e-03	4.521590e-02
398           	7.066670e-02	4.571480e-02	1.026810e-02	4.641750e-02
399           	7.233210e-02	4.803720e-02	1.063430e-02	4.911330e-02
400           	7.323510e-02	4.891040e-02	1.052290e-02	5.071520e-02
401           	7.340720e-02	4.799250e-02	1.035490e-02	5.004370e-02
402           	7.257290e-02	4.546260e-02	1.018240e-02	4.785460e-02
403           	7.075510e-02	4.392810e-02	9.719860e-03	4.479400e-02
404           	7.001770e-02	4.071410e-02	9.228160e-03	4.109020e-02
405           	6.581120e-02	3.745510e-02	8.654600e-03	3.718770e-02
406           	6.273280e-02	3.523940e-02	8.096530e-03	3.416650e-02
407           	6.073990e-02	3.395310e-02	7.611320e-03	3.190870e-02
408           	5.823140e-02	3.316860e-02	7.281290e-03	3.063280e-02
409           	5.665180e-02	3.248860e-02	6.895760e-03	3.027880e-02
410           	5.577320e-02	3.177670e-02	6.609550e-03	3.051160e-02
411           	5.598810e-02	3.060650e-02	6.402100e-03	3.001070e-02
412           	5.480420e-02	2.874130e-02	6.152450e-03	2.881590e-02
413           	5.262180e-02	2.695190e-02	5.825950e-03	2.654150e-02
414           	5.040210e-02	2.538060e-02	5.478410e-03	2.444520e-02
415           	4.774590e-02	2.484490e-02	5.313990e-03	2.281820e-02
416           	4.695970e-02	2.476610e-02	5.296950e-03	2.197290e-02
417           	4.716310e-02	2.481130e-02	5.392820e-03	2.239000e-02
418           	4.740890e-02	2.457760e-02	5.468170e-03	2.320270e-02
419           	4.809900e-02	2.446710e-02	5.529370e-03	2.395240e-02
420           	4.971280e-02	2.432150e-02	5.580920e-03	2.428720e-02
421           	5.031500e-02	2.415050e-02	5.680410e-03	2.474980e-02
422           	5.101710e-02	2.405450e-02	5.768950e-03	2.494360e-02
423           	5.106770e-02	2.468430e-02	5.976490e-03	2.543780e-02
424           	5.040810e-02	2.616620e-02	6.243710e-03	2.653010e-02
425           	5.066540e-02	2.852380e-02	6.543050e-03	2.830980e-02
426           	5.371310e-02	3.122040e-02	6.858190e-03	2.977160e-02
427           	5.602060e-02	3.357760e-02	7.439950e-03	3.154640e-02
428           	5.891200e-02	3.578540e-02	8.188960e-03	3.406330e-02
429           	6.140980e-02	3.826390e-02	9.015260e-03	3.773390e-02
430           	6.363510e-02	4.147940e-02	9.783060e-03	4.121540e-02
431           	6.436570e-02	4.381790e-02	1.056110e-02	4.395370e-02
432           	6.706990e-02	4.678050e-02	1.104720e-02	4.560570e-02
433           	6.815720e-02	5.176510e-02	1.151420e-02	4.788730e-02
434           	6.962370e-02	5.539010e-02	1.210400e-02	4.906860e-02
435           	7.285040e-02	5.894870e-02	1.314490e-02	5.348500e-02
436           	7.659960e-02	6.045570e-02	1.378940e-02	5.555810e-02
437           	7.556150e-02	6.019730e-02	1.393180e-02	5.497160e-02
438           	7.366930e-02	5.468790e-02	1.350490e-02	5.128840e-02
439           	7.486260e-02	4.931520e-02	1.228690e-02	4.659180e-02
440           	7.118000e-02	4.470370e-02	1.108370e-02	4.197870e-02
441           	6.656280e-02	4.236270e-02	1.029680e-02	3.863200e-02
442           	6.372270e-02	4.319740e-02	9.829250e-03	3.812650e-02
443           	6.374970e-02	4.431920e-02	9.546730e-03	3.856870e-02
444           	6.570390e-02	4.372310e-02	9.315080e-03	3.805170e-02
445           	6.388160e-02	4.383490e-02	9.210780e-03	4.027370e-02
446           	6.321920e-02	4.450520e-02	9.040640e-03	4.224580e-02