# Force coefficients
# liftDir     : (0.000000e+00 0.000000e+00 1.000000e+00)
# dragDir     : (0.000000e+00 1.000000e+00 0.000000e+00)
# pitchAxis   : (1.000000e+00 0.000000e+00 0.000000e+00)
# magUInf     : 4.708437e-02
# lRef        : 4.000000e+00
# Aref        : 2.562000e-02
# CofR        : (0.000000e+00 0.000000e+00 0.000000e+00)
# Time        	Cm            	Cd            	Cl            	Cl(f)         	Cl(r)         
1             	-2.294482e-03	5.261528e-01	-5.653717e-02	-3.056306e-02	-2.597410e-02
2             	-2.072128e-03	7.073562e-01	-1.268855e-01	-6.551486e-02	-6.137061e-02
3             	-2.302198e-03	8.460141e-01	-7.794207e-02	-4.127324e-02	-3.666884e-02
4             	-2.332591e-03	8.932800e-01	-2.852232e-03	-3.758707e-03	9.064750e-04
5             	-2.632572e-03	9.558911e-01	5.995297e-02	2.734391e-02	3.260906e-02
6             	-2.560688e-03	9.652071e-01	6.586385e-02	3.037124e-02	3.549261e-02
7             	-2.434419e-03	9.454321e-01	5.123828e-02	2.318472e-02	2.805356e-02
8             	-2.388154e-03	9.465937e-01	2.516678e-02	1.019523e-02	1.497154e-02
9             	-2.354882e-03	9.516648e-01	-2.959199e-03	-3.834482e-03	8.752822e-04
10            	-2.371921e-03	9.619580e-01	-1.840215e-02	-1.157300e-02	-6.829153e-03
11            	-2.358780e-03	9.633099e-01	-2.142461e-02	-1.307108e-02	-8.353523e-03
12            	-2.371329e-03	9.656879e-01	-1.493999e-02	-9.841324e-03	-5.098666e-03
13            	-2.358302e-03	9.589673e-01	-7.474717e-03	-6.095661e-03	-1.379056e-03
14            	-2.338741e-03	9.492948e-01	-4.110780e-03	-4.394131e-03	2.833508e-04
15            	-2.332244e-03	9.432876e-01	-8.408404e-03	-6.536446e-03	-1.871958e-03
16            	-2.375718e-03	9.463997e-01	-1.463465e-02	-9.693042e-03	-4.941605e-03
17            	-2.414372e-03	9.507454e-01	-2.049969e-02	-1.266422e-02	-7.835472e-03
18            	-2.434536e-03	9.540773e-01	-2.409070e-02	-1.447988e-02	-9.610811e-03
19            	-2.443323e-03	9.557691e-01	-2.283736e-02	-1.386200e-02	-8.975356e-03
20            	-2.471882e-03	9.595729e-01	-1.900330e-02	-1.197353e-02	-7.029769e-03
21            	-2.498009e-03	9.619738e-01	-1.633505e-02	-1.066553e-02	-5.669517e-03
22            	-2.527321e-03	9.646943e-01	-1.567194e-02	-1.036329e-02	-5.308649e-03
23            	-2.558449e-03	9.674641e-01	-1.677370e-02	-1.094530e-02	-5.828400e-03
24            	-2.575016e-03	9.684275e-01	-1.850955e-02	-1.182979e-02	-6.679759e-03
25            	-2.581086e-03	9.677487e-01	-2.017222e-02	-1.266720e-02	-7.505023e-03
26            	-2.576752e-03	9.655541e-01	-2.087923e-02	-1.301637e-02	-7.862864e-03
27            	-2.566894e-03	9.631081e-01	-2.054343e-02	-1.283861e-02	-7.704819e-03
28            	-2.561997e-03	9.610070e-01	-1.923411e-02	-1.217905e-02	-7.055057e-03
29            	-2.563264e-03	9.598857e-01	-1.721442e-02	-1.117047e-02	-6.043947e-03
30            	-2.572026e-03	9.603092e-01	-1.497313e-02	-1.005859e-02	-4.914538e-03
31            	-2.587929e-03	9.624349e-01	-1.283359e-02	-9.004723e-03	-3.828865e-03
32            	-2.624083e-03	9.671799e-01	-1.007813e-02	-7.663148e-03	-2.414983e-03
33            	-2.636055e-03	9.705020e-01	-7.596153e-03	-6.434131e-03	-1.162022e-03
34            	-2.650015e-03	9.742029e-01	-5.855613e-03	-5.577822e-03	-2.777911e-04
35            	-2.658833e-03	9.766886e-01	-4.845234e-03	-5.081450e-03	2.362157e-04
36            	-2.664984e-03	9.782505e-01	-4.402327e-03	-4.866147e-03	4.638200e-04
37            	-2.665675e-03	9.788065e-01	-4.573588e-03	-4.952469e-03	3.788811e-04
38            	-2.661062e-03	9.783283e-01	-5.505554e-03	-5.413839e-03	-9.171549e-05
39            	-2.650426e-03	9.765550e-01	-7.057675e-03	-6.179263e-03	-8.784121e-04
40            	-2.632707e-03	9.731820e-01	-8.642842e-03	-6.954128e-03	-1.688714e-03
41            	-2.609887e-03	9.684782e-01	-9.677150e-03	-7.448462e-03	-2.228689e-03
42            	-2.588229e-03	9.632212e-01	-1.009886e-02	-7.637659e-03	-2.461201e-03
43            	-2.571659e-03	9.584681e-01	-9.846732e-03	-7.495025e-03	-2.351707e-03
44            	-2.564934e-03	9.552029e-01	-9.134912e-03	-7.132390e-03	-2.002522e-03
45            	-2.568611e-03	9.539031e-01	-8.049434e-03	-6.593328e-03	-1.456106e-03
46            	-2.579347e-03	9.539270e-01	-6.476615e-03	-5.817655e-03	-6.589601e-04
47            	-2.597806e-03	9.558410e-01	-4.690024e-03	-4.942818e-03	2.527946e-04
48            	-2.623089e-03	9.599735e-01	-3.182538e-03	-4.214358e-03	1.031820e-03
49            	-2.654006e-03	9.658531e-01	-2.079528e-03	-3.693771e-03	1.614242e-03
50            	-2.686449e-03	9.725797e-01	-9.721134e-04	-3.172505e-03	2.200392e-03
51            	-2.719321e-03	9.800477e-01	-5.365764e-05	-2.746150e-03	2.692492e-03
52            	-2.745736e-03	9.866163e-01	6.547480e-04	-2.418362e-03	3.073110e-03
53            	-2.767221e-03	9.921823e-01	7.211094e-04	-2.406666e-03	3.127776e-03
54            	-2.779438e-03	9.958502e-01	7.867791e-05	-2.740099e-03	2.818777e-03
55            	-2.782549e-03	9.979084e-01	-1.201441e-03	-3.383270e-03	2.181829e-03
56            	-2.771778e-03	9.974604e-01	-3.287394e-03	-4.415475e-03	1.128081e-03
57            	-2.749607e-03	9.944678e-01	-5.665584e-03	-5.582399e-03	-8.318507e-05
58            	-2.722994e-03	9.894975e-01	-7.719968e-03	-6.582978e-03	-1.136990e-03
59            	-2.698141e-03	9.838242e-01	-9.485445e-03	-7.440863e-03	-2.044582e-03
60            	-2.681356e-03	9.787665e-01	-1.134235e-02	-8.352531e-03	-2.989819e-03
61            	-2.674655e-03	9.746427e-01	-1.348073e-02	-9.415018e-03	-4.065709e-03
62            	-2.672057e-03	9.710954e-01	-1.529086e-02	-1.031749e-02	-4.973372e-03
63            	-2.670686e-03	9.680093e-01	-1.638797e-02	-1.086467e-02	-5.523299e-03
64            	-2.666488e-03	9.649245e-01	-1.651546e-02	-1.092422e-02	-5.591243e-03
65            	-2.664324e-03	9.627432e-01	-1.530951e-02	-1.031908e-02	-4.990431e-03
66            	-2.652988e-03	9.597885e-01	-1.208439e-02	-8.695183e-03	-3.389207e-03
67            	-2.641100e-03	9.572045e-01	-7.020832e-03	-6.151516e-03	-8.693161e-04
68            	-2.642551e-03	9.572266e-01	-1.903882e-03	-3.594492e-03	1.690610e-03
69            	-2.660110e-03	9.600760e-01	1.894069e-03	-1.713075e-03	3.607145e-03
70            	-2.693423e-03	9.659555e-01	4.284469e-03	-5.511887e-04	4.835658e-03
71            	-2.742015e-03	9.750607e-01	5.756656e-03	1.363127e-04	5.620343e-03
72            	-2.785939e-03	9.844510e-01	7.180703e-03	8.044122e-04	6.376290e-03
73            	-2.819393e-03	9.925735e-01	8.446981e-03	1.404098e-03	7.042883e-03
74            	-2.841031e-03	9.988574e-01	9.047401e-03	1.682669e-03	7.364732e-03
75            	-2.845283e-03	1.001957e+00	8.653405e-03	1.481419e-03	7.171985e-03
76            	-2.834972e-03	1.002655e+00	7.443187e-03	8.866217e-04	6.556565e-03
77            	-2.814080e-03	1.001521e+00	5.342766e-03	-1.426973e-04	5.485463e-03
78            	-2.784226e-03	9.985365e-01	2.806121e-03	-1.381165e-03	4.187286e-03
79            	-2.752722e-03	9.945362e-01	6.109312e-04	-2.447256e-03	3.058187e-03
80            	-2.729281e-03	9.908212e-01	-1.236232e-03	-3.347397e-03	2.111165e-03
81            	-2.710115e-03	9.867739e-01	-2.603009e-03	-4.011619e-03	1.408611e-03
82            	-2.699757e-03	9.829926e-01	-3.926800e-03	-4.663158e-03	7.363571e-04
83            	-2.699807e-03	9.798577e-01	-5.236749e-03	-5.318181e-03	8.143185e-05
84            	-2.702602e-03	9.769191e-01	-6.027996e-03	-5.716600e-03	-3.113954e-04
85            	-2.702659e-03	9.739065e-01	-6.013267e-03	-5.709292e-03	-3.039749e-04
86            	-2.696200e-03	9.702435e-01	-4.850663e-03	-5.121532e-03	2.708684e-04
87            	-2.694098e-03	9.679521e-01	-2.339549e-03	-3.863872e-03	1.524323e-03
88            	-2.681493e-03	9.649648e-01	1.723700e-03	-1.819643e-03	3.543343e-03
89            	-2.673143e-03	9.632360e-01	6.049245e-03	3.514797e-04	5.697765e-03
90            	-2.679293e-03	9.641019e-01	9.121449e-03	1.881431e-03	7.240018e-03
91            	-2.701657e-03	9.680651e-01	1.040381e-02	2.500248e-03	7.903562e-03
92            	-2.742673e-03	9.758062e-01	1.021224e-02	2.363446e-03	7.848792e-03
93            	-2.787749e-03	9.854130e-01	9.485877e-03	1.955190e-03	7.530688e-03
94            	-2.827378e-03	9.948565e-01	8.515610e-03	1.430427e-03	7.085183e-03
95            	-2.852068e-03	1.002079e+00	7.471672e-03	8.837681e-04	6.587904e-03
96            	-2.857862e-03	1.005942e+00	6.377338e-03	3.308066e-04	6.046531e-03
97            	-2.852472e-03	1.007929e+00	5.108247e-03	-2.983487e-04	5.406596e-03
98            	-2.837852e-03	1.008298e+00	3.762937e-03	-9.563836e-04	4.719320e-03
99            	-2.808985e-03	1.005953e+00	2.633406e-03	-1.492282e-03	4.125688e-03
100           	-2.775958e-03	1.001473e+00	1.903002e-03	-1.824457e-03	3.727459e-03
101           	-2.744491e-03	9.956394e-01	1.306318e-03	-2.091332e-03	3.397650e-03
102           	-2.719613e-03	9.896417e-01	1.648098e-04	-2.637208e-03	2.802018e-03
103           	-2.702565e-03	9.839333e-01	-2.006549e-03	-3.705840e-03	1.699291e-03
104           	-2.698764e-03	9.796055e-01	-5.325983e-03	-5.361755e-03	3.577205e-05
105           	-2.701195e-03	9.763430e-01	-8.811350e-03	-7.106870e-03	-1.704480e-03
106           	-2.702631e-03	9.735833e-01	-1.135804e-02	-8.381653e-03	-2.976391e-03
107           	-2.698977e-03	9.707029e-01	-1.227931e-02	-8.838630e-03	-3.440676e-03
108           	-2.688303e-03	9.671236e-01	-1.113780e-02	-8.257202e-03	-2.880596e-03
109           	-2.670378e-03	9.637027e-01	-7.043411e-03	-6.192083e-03	-8.513275e-04
110           	-2.656716e-03	9.615845e-01	-9.713584e-04	-3.142396e-03	2.171037e-03
111           	-2.663055e-03	9.628417e-01	5.212134e-03	-5.698829e-05	5.269122e-03
112           	-2.689113e-03	9.674347e-01	9.687236e-03	2.154505e-03	7.532731e-03
113           	-2.736955e-03	9.759630e-01	1.168069e-02	3.103390e-03	8.577301e-03
114           	-2.787513e-03	9.861491e-01	1.194798e-02	3.186475e-03	8.761500e-03
115           	-2.834431e-03	9.963676e-01	1.098898e-02	2.660057e-03	8.328919e-03
116           	-2.863152e-03	1.004045e+00	9.735006e-03	2.004351e-03	7.730655e-03
117           	-2.873691e-03	1.009098e+00	8.292271e-03	1.272444e-03	7.019827e-03
118           	-2.863721e-03	1.010722e+00	6.806170e-03	5.393641e-04	6.266806e-03
119           	-2.840809e-03	1.010143e+00	5.535707e-03	-7.295603e-05	5.608663e-03
120           	-2.810330e-03	1.007717e+00	4.393106e-03	-6.137772e-04	5.006884e-03
121           	-2.776468e-03	1.003581e+00	3.440843e-03	-1.056047e-03	4.496890e-03
122           	-2.745047e-03	9.982962e-01	2.601270e-03	-1.444412e-03	4.045681e-03
123           	-2.721703e-03	9.929769e-01	1.426599e-03	-2.008403e-03	3.435002e-03
124           	-2.707797e-03	9.881758e-01	-7.595091e-04	-3.087552e-03	2.328042e-03
125           	-2.705364e-03	9.843187e-01	-4.155926e-03	-4.783327e-03	6.274010e-04
126           	-2.707595e-03	9.810171e-01	-7.877078e-03	-6.646134e-03	-1.230944e-03
127           	-2.711577e-03	9.784439e-01	-1.109499e-02	-8.259071e-03	-2.835916e-03
128           	-2.713207e-03	9.762936e-01	-1.308197e-02	-9.254193e-03	-3.827780e-03
129           	-2.709830e-03	9.741601e-01	-1.317165e-02	-9.295655e-03	-3.875995e-03
130           	-2.698531e-03	9.718478e-01	-1.017152e-02	-7.784290e-03	-2.387228e-03
131           	-2.686628e-03	9.700431e-01	-4.775764e-03	-5.074510e-03	2.987460e-04
132           	-2.685968e-03	9.701015e-01	1.424837e-03	-1.973549e-03	3.398386e-03
133           	-2.696670e-03	9.719436e-01	6.445120e-03	5.258901e-04	5.919230e-03
134           	-2.713496e-03	9.748808e-01	8.579579e-03	1.576294e-03	7.003285e-03
135           	-2.737578e-03	9.793898e-01	7.651762e-03	1.088303e-03	6.563459e-03
136           	-2.762857e-03	9.852631e-01	4.679487e-03	-4.231138e-04	5.102601e-03
137           	-2.788101e-03	9.921789e-01	6.954227e-04	-2.440390e-03	3.135812e-03
138           	-2.808743e-03	9.990142e-01	-2.744934e-03	-4.181210e-03	1.436276e-03
139           	-2.818142e-03	1.004076e+00	-4.225741e-03	-4.931013e-03	7.052717e-04
140           	-2.814000e-03	1.006575e+00	-3.674091e-03	-4.651045e-03	9.769548e-04
141           	-2.804991e-03	1.007851e+00	-1.207827e-03	-3.408904e-03	2.201078e-03
142           	-2.794144e-03	1.007878e+00	2.621692e-03	-1.483298e-03	4.104990e-03
143           	-2.782531e-03	1.006300e+00	6.830120e-03	6.325287e-04	6.197591e-03
144           	-2.770352e-03	1.003214e+00	9.671770e-03	2.065533e-03	7.606237e-03
145           	-2.761258e-03	9.996519e-01	9.735043e-03	2.106264e-03	7.628779e-03
146           	-2.759356e-03	9.967220e-01	6.256943e-03	3.691155e-04	5.887827e-03
147           	-2.756260e-03	9.936230e-01	2.362637e-04	-2.638128e-03	2.874392e-03
148           	-2.747023e-03	9.898442e-01	-6.742805e-03	-6.118425e-03	-6.243798e-04
149           	-2.737023e-03	9.860481e-01	-1.289032e-02	-9.182184e-03	-3.708137e-03
150           	-2.727597e-03	9.825526e-01	-1.627985e-02	-1.086752e-02	-5.412327e-03
151           	-2.719063e-03	9.795638e-01	-1.657081e-02	-1.100447e-02	-5.566344e-03
152           	-2.716297e-03	9.776901e-01	-1.428893e-02	-9.860762e-03	-4.428169e-03
153           	-2.719667e-03	9.770808e-01	-9.720711e-03	-7.580023e-03	-2.140689e-03
154           	-2.722411e-03	9.770729e-01	-3.686490e-03	-4.565656e-03	8.791659e-04
155           	-2.715274e-03	9.763531e-01	2.364338e-03	-1.533105e-03	3.897443e-03
156           	-2.700614e-03	9.750717e-01	6.931404e-03	7.650882e-04	6.166316e-03
157           	-2.687881e-03	9.743213e-01	8.589911e-03	1.607075e-03	6.982836e-03
158           	-2.682088e-03	9.744851e-01	6.486330e-03	5.610766e-04	5.925253e-03
159           	-2.681050e-03	9.750250e-01	1.365521e-03	-1.998290e-03	3.363811e-03
160           	-2.685287e-03	9.758611e-01	-4.501508e-03	-4.936041e-03	4.345327e-04
161           	-2.685600e-03	9.760290e-01	-9.163994e-03	-7.267596e-03	-1.896397e-03
162           	-2.682890e-03	9.758036e-01	-1.164081e-02	-8.503296e-03	-3.137516e-03
163           	-2.682287e-03	9.757575e-01	-1.115195e-02	-8.258260e-03	-2.893687e-03
164           	-2.686970e-03	9.761997e-01	-7.722717e-03	-6.548328e-03	-1.174389e-03
165           	-2.696665e-03	9.769018e-01	-1.458765e-03	-3.426048e-03	1.967282e-03
166           	-2.711868e-03	9.778438e-01	6.979163e-03	7.777133e-04	6.201450e-03
167           	-2.731363e-03	9.789539e-01	1.579900e-02	5.168139e-03	1.063087e-02
168           	-2.758125e-03	9.807098e-01	2.359689e-02	9.040318e-03	1.455657e-02
169           	-2.788124e-03	9.835093e-01	2.861138e-02	1.151756e-02	1.709381e-02
170           	-2.817326e-03	9.872357e-01	3.030365e-02	1.233450e-02	1.796915e-02
171           	-2.837276e-03	9.906630e-01	2.907447e-02	1.169996e-02	1.737451e-02
172           	-2.853933e-03	9.943683e-01	2.492788e-02	9.610006e-03	1.531787e-02
173           	-2.866245e-03	9.982750e-01	1.796565e-02	6.116579e-03	1.184907e-02
174           	-2.873229e-03	1.002167e+00	9.403509e-03	1.828526e-03	7.574983e-03
175           	-2.874406e-03	1.005766e+00	1.156242e-03	-2.296285e-03	3.452527e-03
176           	-2.869422e-03	1.008528e+00	-5.012370e-03	-5.375607e-03	3.632373e-04
177           	-2.860158e-03	1.010168e+00	-8.182858e-03	-6.951587e-03	-1.231271e-03
178           	-2.847993e-03	1.010412e+00	-8.638081e-03	-7.167033e-03	-1.471048e-03
179           	-2.830055e-03	1.008448e+00	-6.966285e-03	-6.313197e-03	-6.530876e-04
180           	-2.808585e-03	1.004402e+00	-4.485818e-03	-5.051494e-03	5.656765e-04
181           	-2.784301e-03	9.985490e-01	-1.956539e-03	-3.762570e-03	1.806031e-03
182           	-2.762950e-03	9.920162e-01	-2.611274e-04	-2.893514e-03	2.632386e-03
183           	-2.755770e-03	9.870380e-01	5.910448e-04	-2.460247e-03	3.051292e-03
184           	-2.764008e-03	9.846089e-01	1.042817e-03	-2.242599e-03	3.285416e-03
185           	-2.770038e-03	9.824558e-01	1.175137e-03	-2.182469e-03	3.357606e-03
186           	-2.781475e-03	9.818332e-01	6.058057e-04	-2.478572e-03	3.084377e-03
187           	-2.779972e-03	9.807047e-01	-1.232330e-03	-3.396136e-03	2.163807e-03
188           	-2.759479e-03	9.784538e-01	-4.758343e-03	-5.138650e-03	3.803072e-04
189           	-2.723326e-03	9.752543e-01	-9.795021e-03	-7.620837e-03	-2.174184e-03
190           	-2.696749e-03	9.742725e-01	-1.504951e-02	-1.022150e-02	-4.828007e-03
191           	-2.694051e-03	9.766925e-01	-1.902025e-02	-1.220418e-02	-6.816073e-03
192           	-2.709250e-03	9.816309e-01	-2.041514e-02	-1.291682e-02	-7.498321e-03
193           	-2.730327e-03	9.869267e-01	-1.871244e-02	-1.208655e-02	-6.625896e-03
194           	-2.758577e-03	9.928547e-01	-1.385346e-02	-9.685309e-03	-4.168156e-03
195           	-2.782170e-03	9.975554e-01	-6.682830e-03	-6.123585e-03	-5.592445e-04
196           	-2.811162e-03	1.002344e+00	1.998403e-03	-1.811961e-03	3.810363e-03
197           	-2.826095e-03	1.004638e+00	9.667388e-03	2.007598e-03	7.659789e-03
198           	-2.829218e-03	1.004957e+00	1.434111e-02	4.341335e-03	9.999770e-03
199           	-2.832427e-03	1.004525e+00	1.541368e-02	4.874413e-03	1.053927e-02
200           	-2.830209e-03	1.003267e+00	1.179702e-02	3.068303e-03	8.728720e-03
201           	-2.813870e-03	1.000455e+00	4.391030e-03	-6.183548e-04	5.009385e-03
202           	-2.809628e-03	1.000521e+00	-5.727230e-03	-5.673243e-03	-5.398773e-05
203           	-2.829072e-03	1.004345e+00	-1.703853e-02	-1.134834e-02	-5.690193e-03
204           	-2.819579e-03	1.003242e+00	-2.406311e-02	-1.485114e-02	-9.211978e-03
205           	-2.786089e-03	9.984755e-01	-2.552916e-02	-1.555067e-02	-9.978493e-03
206           	-2.755709e-03	9.933145e-01	-2.261207e-02	-1.406174e-02	-8.550327e-03
207           	-2.735531e-03	9.891472e-01	-1.629181e-02	-1.088144e-02	-5.410374e-03
208           	-2.740523e-03	9.880923e-01	-8.305995e-03	-6.893520e-03	-1.412474e-03
209           	-2.761661e-03	9.895983e-01	1.304259e-03	-2.109531e-03	3.413790e-03
210           	-2.784694e-03	9.917844e-01	1.182795e-02	3.129279e-03	8.698666e-03
211           	-2.789853e-03	9.916493e-01	2.169465e-02	8.057473e-03	1.363718e-02
212           	-2.781652e-03	9.896882e-01	2.857586e-02	1.150628e-02	1.706958e-02
213           	-2.764323e-03	9.866142e-01	2.933021e-02	1.190078e-02	1.742943e-02
214           	-2.744991e-03	9.836645e-01	2.270817e-02	8.609093e-03	1.409908e-02
215           	-2.729106e-03	9.817022e-01	1.031872e-02	2.430252e-03	7.888464e-03
216           	-2.715087e-03	9.805479e-01	-2.780106e-03	-4.105140e-03	1.325034e-03
217           	-2.708745e-03	9.802391e-01	-1.246392e-02	-8.940703e-03	-3.523212e-03
218           	-2.701747e-03	9.800485e-01	-1.772850e-02	-1.156599e-02	-6.162501e-03
219           	-2.690779e-03	9.792736e-01	-1.875450e-02	-1.206803e-02	-6.686472e-03
220           	-2.680837e-03	9.779815e-01	-1.635916e-02	-1.086042e-02	-5.498742e-03
221           	-2.676149e-03	9.764338e-01	-1.072782e-02	-8.040058e-03	-2.687759e-03
222           	-2.680465e-03	9.753268e-01	-2.951536e-03	-4.156233e-03	1.204697e-03
223           	-2.693726e-03	9.751346e-01	5.151991e-03	-1.177308e-04	5.269721e-03
224           	-2.720345e-03	9.765904e-01	1.195771e-02	3.258510e-03	8.699201e-03
225           	-2.749577e-03	9.794799e-01	1.658559e-02	5.543220e-03	1.104237e-02
226           	-2.783429e-03	9.841771e-01	1.860869e-02	6.520918e-03	1.208778e-02
227           	-2.813176e-03	9.895768e-01	1.835507e-02	6.364360e-03	1.199071e-02
228           	-2.832780e-03	9.944769e-01	1.602274e-02	5.178587e-03	1.084415e-02
229           	-2.848407e-03	9.996930e-01	1.150862e-02	2.905905e-03	8.602719e-03
230           	-2.865693e-03	1.005819e+00	5.135096e-03	-2.981446e-04	5.433241e-03
231           	-2.879571e-03	1.011839e+00	-1.564534e-03	-3.661837e-03	2.097304e-03
232           	-2.884951e-03	1.016554e+00	-6.783952e-03	-6.276927e-03	-5.070251e-04
233           	-2.887528e-03	1.020186e+00	-9.459650e-03	-7.617353e-03	-1.842297e-03
234           	-2.875553e-03	1.020995e+00	-8.572174e-03	-7.161640e-03	-1.410534e-03
235           	-2.861590e-03	1.019751e+00	-5.540349e-03	-5.631764e-03	9.141487e-05
236           	-2.841462e-03	1.015876e+00	-1.297258e-03	-3.490091e-03	2.192833e-03
237           	-2.816944e-03	1.009743e+00	2.750039e-03	-1.441924e-03	4.191963e-03
238           	-2.797214e-03	1.002983e+00	5.518213e-03	-3.810775e-05	5.556321e-03
239           	-2.790684e-03	9.972115e-01	6.166601e-03	2.926167e-04	5.873984e-03
240           	-2.773885e-03	9.905316e-01	5.195465e-03	-1.761528e-04	5.371617e-03
241           	-2.768517e-03	9.858501e-01	2.323217e-03	-1.606908e-03	3.930125e-03
242           	-2.759006e-03	9.817833e-01	-9.046079e-04	-3.211310e-03	2.306702e-03
243           	-2.753728e-03	9.798134e-01	-4.149324e-03	-4.828389e-03	6.790656e-04
244           	-2.734585e-03	9.774919e-01	-7.294712e-03	-6.381941e-03	-9.127711e-04
245           	-2.702630e-03	9.745604e-01	-1.019821e-02	-7.801735e-03	-2.396475e-03
246           	-2.645627e-03	9.687701e-01	-1.275742e-02	-9.024336e-03	-3.733083e-03
247           	-2.596452e-03	9.641153e-01	-1.490127e-02	-1.004709e-02	-4.854183e-03
248           	-2.573188e-03	9.626859e-01	-1.611612e-02	-1.063125e-02	-5.484872e-03
249           	-2.582042e-03	9.651334e-01	-1.551615e-02	-1.034012e-02	-5.176034e-03
250           	-2.606208e-03	9.692784e-01	-1.218608e-02	-8.699248e-03	-3.486833e-03
251           	-2.638259e-03	9.739884e-01	-5.891985e-03	-5.584252e-03	-3.077331e-04
252           	-2.666571e-03	9.778474e-01	2.988901e-03	-1.172121e-03	4.161021e-03
253           	-2.698202e-03	9.815541e-01	1.320548e-02	3.904536e-03	9.300941e-03
254           	-2.726276e-03	9.847065e-01	2.290619e-02	8.726820e-03	1.417937e-02
255           	-2.768733e-03	9.891497e-01	3.157939e-02	1.302096e-02	1.855843e-02
256           	-2.808214e-03	9.934180e-01	3.740199e-02	1.589278e-02	2.150921e-02
257           	-2.828392e-03	9.958874e-01	3.913976e-02	1.674149e-02	2.239827e-02
258           	-2.848448e-03	9.984364e-01	3.586586e-02	1.508448e-02	2.078138e-02
259           	-2.862078e-03	1.000969e+00	2.789737e-02	1.108661e-02	1.681076e-02
260           	-2.867048e-03	1.003649e+00	1.690171e-02	5.583806e-03	1.131790e-02
261           	-2.861840e-03	1.005954e+00	5.695824e-03	-1.392740e-05	5.709752e-03
262           	-2.849986e-03	1.007659e+00	-3.335340e-03	-4.517656e-03	1.182316e-03
263           	-2.837715e-03	1.008809e+00	-8.688004e-03	-7.181717e-03	-1.506287e-03
264           	-2.820064e-03	1.008392e+00	-9.563106e-03	-7.601618e-03	-1.961489e-03
265           	-2.792637e-03	1.005161e+00	-6.577874e-03	-6.081574e-03	-4.963003e-04
266           	-2.763985e-03	9.996677e-01	-1.419286e-03	-3.473628e-03	2.054342e-03
267           	-2.744309e-03	9.936438e-01	4.106574e-03	-6.910219e-04	4.797596e-03
268           	-2.737586e-03	9.882328e-01	8.370026e-03	1.447427e-03	6.922599e-03
269           	-2.734756e-03	9.829398e-01	1.024266e-02	2.386574e-03	7.856086e-03
270           	-2.730148e-03	9.778503e-01	9.789756e-03	2.164729e-03	7.625026e-03
271           	-2.737708e-03	9.751025e-01	7.124802e-03	8.246936e-04	6.300109e-03
272           	-2.745357e-03	9.735707e-01	2.637848e-03	-1.426433e-03	4.064281e-03
273           	-2.733491e-03	9.711941e-01	-3.830543e-03	-4.648763e-03	8.182192e-04
274           	-2.717831e-03	9.702086e-01	-1.237269e-02	-8.904177e-03	-3.468514e-03
275           	-2.703028e-03	9.710381e-01	-2.114058e-02	-1.327332e-02	-7.867262e-03
276           	-2.690092e-03	9.766997e-01	-3.367477e-02	-1.952748e-02	-1.414729e-02
277           	-2.693138e-03	9.784531e-01	-3.494093e-02	-2.016360e-02	-1.477733e-02
278           	-2.688264e-03	9.804750e-01	-3.445538e-02	-1.991595e-02	-1.453942e-02
279           	-2.694520e-03	9.837727e-01	-3.090060e-02	-1.814482e-02	-1.275578e-02
280           	-2.696777e-03	9.856026e-01	-2.224192e-02	-1.381774e-02	-8.424184e-03
281           	-2.722625e-03	9.898378e-01	-9.123160e-03	-7.284205e-03	-1.838954e-03
282           	-2.752913e-03	9.938219e-01	5.043367e-03	-2.312296e-04	5.274597e-03
283           	-2.783640e-03	9.975168e-01	1.695942e-02	5.696068e-03	1.126335e-02
284           	-2.813834e-03	1.000790e+00	2.562945e-02	1.000089e-02	1.562856e-02
285           	-2.839909e-03	1.003333e+00	3.008589e-02	1.220303e-02	1.788285e-02
286           	-2.858105e-03	1.004922e+00	2.960976e-02	1.194678e-02	1.766299e-02
287           	-2.867203e-03	1.005891e+00	2.302081e-02	8.643203e-03	1.437761e-02
288           	-2.867430e-03	1.006666e+00	1.205807e-02	3.161607e-03	8.896467e-03
289           	-2.863282e-03	1.007629e+00	2.136755e-04	-2.756444e-03	2.970120e-03
290           	-2.850193e-03	1.008140e+00	-1.040480e-02	-8.052593e-03	-2.352207e-03
291           	-2.836509e-03	1.007562e+00	-1.662769e-02	-1.115035e-02	-5.477337e-03
292           	-2.804106e-03	1.003486e+00	-1.744495e-02	-1.152658e-02	-5.918370e-03
293           	-2.775386e-03	9.977955e-01	-1.475508e-02	-1.015293e-02	-4.602155e-03
294           	-2.756018e-03	9.918340e-01	-1.046670e-02	-7.989367e-03	-2.477332e-03
295           	-2.747230e-03	9.865885e-01	-5.998546e-03	-5.746503e-03	-2.520429e-04
296           	-2.750530e-03	9.832703e-01	-1.726319e-03	-3.613690e-03	1.887370e-03
297           	-2.751909e-03	9.804679e-01	1.878532e-03	-1.812643e-03	3.691175e-03
298           	-2.762462e-03	9.798301e-01	4.092084e-03	-7.164202e-04	4.808504e-03
299           	-2.765584e-03	9.791749e-01	4.383479e-03	-5.738445e-04	4.957324e-03
300           	-2.748367e-03	9.766468e-01	2.409755e-03	-1.543490e-03	3.953245e-03
301           	-2.722011e-03	9.737259e-01	-1.922676e-03	-3.683349e-03	1.760673e-03
302           	-2.698501e-03	9.719039e-01	-8.085643e-03	-6.741322e-03	-1.344321e-03
303           	-2.680202e-03	9.714094e-01	-1.466229e-02	-1.001135e-02	-4.650941e-03
304           	-2.682171e-03	9.737199e-01	-1.974336e-02	-1.255385e-02	-7.189509e-03
305           	-2.695856e-03	9.774277e-01	-2.185751e-02	-1.362461e-02	-8.232900e-03
306           	-2.712322e-03	9.815392e-01	-2.023087e-02	-1.282776e-02	-7.403115e-03
307           	-2.730189e-03	9.853173e-01	-1.457339e-02	-1.001689e-02	-4.556508e-03
308           	-2.754337e-03	9.893838e-01	-4.864947e-03	-5.186811e-03	3.218634e-04
309           	-2.782665e-03	9.930308e-01	6.837995e-03	6.363328e-04	6.201662e-03
310           	-2.809065e-03	9.961504e-01	1.749747e-02	5.939671e-03	1.155780e-02
311           	-2.838415e-03	9.998031e-01	2.492099e-02	9.622079e-03	1.529891e-02
312           	-2.865480e-03	1.003609e+00	2.795222e-02	1.111063e-02	1.684159e-02
313           	-2.886230e-03	1.007096e+00	2.584950e-02	1.003852e-02	1.581098e-02
314           	-2.893474e-03	1.009348e+00	1.820291e-02	6.207979e-03	1.199493e-02
315           	-2.884153e-03	1.010341e+00	6.943002e-03	5.873479e-04	6.355655e-03
316           	-2.864148e-03	1.010525e+00	-4.786263e-03	-5.257280e-03	4.710169e-04
317           	-2.842098e-03	1.010228e+00	-1.433400e-02	-1.000910e-02	-4.324902e-03
318           	-2.842559e-03	1.013010e+00	-2.069548e-02	-1.319030e-02	-7.505181e-03
319           	-2.846549e-03	1.014719e+00	-2.167563e-02	-1.368437e-02	-7.991268e-03
320           	-2.840947e-03	1.012552e+00	-1.690841e-02	-1.129515e-02	-5.613256e-03
321           	-2.811632e-03	1.005040e+00	-9.157977e-03	-7.390620e-03	-1.767357e-03
322           	-2.794543e-03	9.987094e-01	-1.052066e-03	-3.320576e-03	2.268510e-03
323           	-2.804781e-03	9.964357e-01	5.196378e-03	-2.065920e-04	5.402970e-03
324           	-2.823176e-03	9.961382e-01	8.562027e-03	1.457837e-03	7.104190e-03
325           	-2.837802e-03	9.963569e-01	9.880543e-03	2.102470e-03	7.778073e-03
326           	-2.833025e-03	9.954403e-01	9.183543e-03	1.758746e-03	7.424797e-03
327           	-2.795095e-03	9.914741e-01	6.386106e-03	3.979582e-04	5.988148e-03
328           	-2.741511e-03	9.860695e-01	1.251741e-03	-2.115641e-03	3.367382e-03
329           	-2.692730e-03	9.811046e-01	-4.312566e-03	-4.849013e-03	5.364467e-04
330           	-2.662774e-03	9.779122e-01	-8.427314e-03	-6.876431e-03	-1.550883e-03
331           	-2.652277e-03	9.765904e-01	-1.016944e-02	-7.736998e-03	-2.432443e-03
332           	-2.648872e-03	9.759236e-01	-9.254647e-03	-7.276196e-03	-1.978452e-03
333           	-2.650919e-03	9.758170e-01	-5.603797e-03	-5.452817e-03	-1.509797e-04
334           	-2.662245e-03	9.767895e-01	6.713724e-04	-2.326558e-03	2.997931e-03
335           	-2.688857e-03	9.794480e-01	9.081733e-03	1.852009e-03	7.229724e-03
336           	-2.727238e-03	9.835033e-01	1.798697e-02	6.266249e-03	1.172072e-02
337           	-2.764419e-03	9.880355e-01	2.549894e-02	9.985051e-03	1.551389e-02
338           	-2.808122e-03	9.938932e-01	2.838114e-02	1.138245e-02	1.699869e-02
339           	-2.852534e-03	1.000300e+00	2.689540e-02	1.059516e-02	1.630023e-02
340           	-2.886937e-03	1.006190e+00	2.146310e-02	7.844613e-03	1.361849e-02
341           	-2.902329e-03	1.010207e+00	1.307478e-02	3.635062e-03	9.439720e-03
342           	-2.900939e-03	1.012672e+00	2.586686e-03	-1.607596e-03	4.194282e-03
343           	-2.888878e-03	1.014280e+00	-8.773807e-03	-7.275781e-03	-1.498026e-03
344           	-2.874960e-03	1.015412e+00	-1.878268e-02	-1.226630e-02	-6.516380e-03
345           	-2.855577e-03	1.015888e+00	-2.573188e-02	-1.572152e-02	-1.001036e-02
346           	-2.829311e-03	1.014712e+00	-2.853768e-02	-1.709815e-02	-1.143953e-02
347           	-2.804699e-03	1.012946e+00	-2.667311e-02	-1.614125e-02	-1.053186e-02
348           	-2.800870e-03	1.011471e+00	-2.087359e-02	-1.323766e-02	-7.635924e-03
349           	-2.803709e-03	1.008534e+00	-1.243964e-02	-9.023531e-03	-3.416112e-03
350           	-2.812897e-03	1.005575e+00	-2.543223e-03	-4.084509e-03	1.541286e-03
351           	-2.833117e-03	1.004250e+00	7.918164e-03	1.125965e-03	6.792199e-03
352           	-2.840447e-03	1.002164e+00	1.834668e-02	6.332895e-03	1.201379e-02
353           	-2.843984e-03	1.000314e+00	2.699356e-02	1.065279e-02	1.634076e-02
354           	-2.818815e-03	9.957819e-01	3.303882e-02	1.370059e-02	1.933822e-02
355           	-2.775288e-03	9.892142e-01	3.428865e-02	1.436904e-02	1.991962e-02
356           	-2.725548e-03	9.822515e-01	2.980454e-02	1.217672e-02	1.762782e-02
357           	-2.687775e-03	9.777031e-01	2.047584e-02	7.550145e-03	1.292569e-02