# Force coefficients
# liftDir     : (0.000000e+00 0.000000e+00 1.000000e+00)
# dragDir     : (0.000000e+00 1.000000e+00 0.000000e+00)
# pitchAxis   : (1.000000e+00 0.000000e+00 0.000000e+00)
# magUInf     : 7.847395e-03
# lRef        : 4.000000e+00
# Aref        : 2.562000e-02
# CofR        : (0.000000e+00 0.000000e+00 0.000000e+00)
# Time        	Cm            	Cd            	Cl            	Cl(f)         	Cl(r)         
1             	-1.009785e-02	2.353188e+00	-2.671698e-01	-1.436828e-01	-1.234871e-01
2             	-1.257914e-02	3.043065e+00	-3.069200e-01	-1.660391e-01	-1.408808e-01
3             	-8.300057e-03	2.227860e+00	-1.289344e-01	-7.276728e-02	-5.616716e-02
4             	-4.321931e-03	1.418385e+00	1.760188e-02	4.479007e-03	1.312287e-02
5             	-2.570618e-03	1.039156e+00	8.815400e-02	4.150638e-02	4.664762e-02
6             	-2.104887e-03	9.201390e-01	1.148611e-01	5.532564e-02	5.953541e-02
7             	-2.452417e-03	9.825007e-01	1.076619e-01	5.137855e-02	5.628338e-02
8             	-2.874403e-03	1.080834e+00	9.070129e-02	4.247624e-02	4.822505e-02
9             	-3.164080e-03	1.159871e+00	7.415653e-02	3.391419e-02	4.024234e-02
10            	-3.298210e-03	1.205089e+00	6.187372e-02	2.763865e-02	3.423507e-02
11            	-3.363300e-03	1.237204e+00	4.894943e-02	2.111141e-02	2.783801e-02
12            	-3.374721e-03	1.261094e+00	3.394601e-02	1.359828e-02	2.034773e-02
13            	-3.327489e-03	1.269445e+00	2.208750e-02	7.716259e-03	1.437124e-02
14            	-3.268154e-03	1.270411e+00	1.530263e-02	4.383161e-03	1.091947e-02
15            	-3.219136e-03	1.271029e+00	1.050686e-02	2.034297e-03	8.472568e-03
16            	-3.188895e-03	1.274010e+00	5.892223e-03	-2.427838e-04	6.135006e-03
17            	-3.181208e-03	1.280622e+00	9.826555e-04	-2.689881e-03	3.672536e-03
18            	-3.191223e-03	1.290267e+00	-4.073206e-03	-5.227826e-03	1.154621e-03
19            	-3.210112e-03	1.301423e+00	-8.952440e-03	-7.686332e-03	-1.266108e-03
20            	-3.227867e-03	1.312143e+00	-1.322767e-02	-9.841703e-03	-3.385968e-03
21            	-3.240323e-03	1.321588e+00	-1.616345e-02	-1.132205e-02	-4.841403e-03
22            	-3.249400e-03	1.330009e+00	-1.751544e-02	-1.200712e-02	-5.508319e-03
23            	-3.257315e-03	1.337782e+00	-1.773269e-02	-1.212366e-02	-5.609029e-03
24            	-3.265231e-03	1.345152e+00	-1.730529e-02	-1.191788e-02	-5.387414e-03
25            	-3.274009e-03	1.352355e+00	-1.659264e-02	-1.157033e-02	-5.022310e-03
26            	-3.283778e-03	1.359510e+00	-1.585057e-02	-1.120906e-02	-4.641505e-03
27            	-3.297165e-03	1.367252e+00	-1.516414e-02	-1.087924e-02	-4.284907e-03
28            	-3.308921e-03	1.374661e+00	-1.483311e-02	-1.072548e-02	-4.107635e-03
29            	-3.318846e-03	1.381710e+00	-1.492315e-02	-1.078042e-02	-4.142731e-03
30            	-3.326332e-03	1.388248e+00	-1.540198e-02	-1.102732e-02	-4.374658e-03
31            	-3.332206e-03	1.394425e+00	-1.622634e-02	-1.144538e-02	-4.780966e-03
32            	-3.336874e-03	1.400321e+00	-1.734486e-02	-1.200930e-02	-5.335556e-03
33            	-3.340515e-03	1.405963e+00	-1.871794e-02	-1.269948e-02	-6.018453e-03
34            	-3.343336e-03	1.411363e+00	-2.029869e-02	-1.349268e-02	-6.806010e-03
35            	-3.345449e-03	1.416529e+00	-2.203832e-02	-1.436461e-02	-7.673710e-03
36            	-3.347017e-03	1.421475e+00	-2.388786e-02	-1.529095e-02	-8.596915e-03
37            	-3.348125e-03	1.426209e+00	-2.580761e-02	-1.625193e-02	-9.555682e-03
38            	-3.348815e-03	1.430734e+00	-2.776185e-02	-1.722974e-02	-1.053211e-02
39            	-3.347988e-03	1.434658e+00	-2.965395e-02	-1.817496e-02	-1.147898e-02
40            	-3.348683e-03	1.438915e+00	-3.158060e-02	-1.913899e-02	-1.244162e-02
41            	-3.348862e-03	1.442995e+00	-3.350965e-02	-2.010369e-02	-1.340596e-02
42            	-3.347606e-03	1.446472e+00	-3.532752e-02	-2.101136e-02	-1.431615e-02
43            	-3.347199e-03	1.450154e+00	-3.714566e-02	-2.192003e-02	-1.522563e-02
44            	-3.346288e-03	1.453645e+00	-3.893527e-02	-2.281392e-02	-1.612135e-02
45            	-3.344285e-03	1.456605e+00	-4.059365e-02	-2.364111e-02	-1.695254e-02
46            	-3.342977e-03	1.459746e+00	-4.224419e-02	-2.446507e-02	-1.777912e-02
47            	-3.340825e-03	1.462462e+00	-4.379680e-02	-2.523922e-02	-1.855757e-02
48            	-3.339196e-03	1.465343e+00	-4.535174e-02	-2.601507e-02	-1.933668e-02
49            	-3.336756e-03	1.467813e+00	-4.681311e-02	-2.674331e-02	-2.006980e-02
50            	-3.334676e-03	1.470410e+00	-4.827222e-02	-2.747079e-02	-2.080143e-02
51            	-3.331895e-03	1.472625e+00	-4.964164e-02	-2.815272e-02	-2.148893e-02
52            	-3.329118e-03	1.474732e+00	-5.094844e-02	-2.880334e-02	-2.214510e-02
53            	-3.326354e-03	1.476778e+00	-5.221817e-02	-2.943544e-02	-2.278273e-02
54            	-3.323521e-03	1.478753e+00	-5.345848e-02	-3.005276e-02	-2.340572e-02
55            	-3.320551e-03	1.480639e+00	-5.466833e-02	-3.065472e-02	-2.401362e-02
56            	-3.317412e-03	1.482421e+00	-5.584331e-02	-3.123907e-02	-2.460424e-02
57            	-3.314106e-03	1.484094e+00	-5.698033e-02	-3.180427e-02	-2.517606e-02
58            	-3.310670e-03	1.485666e+00	-5.807879e-02	-3.235006e-02	-2.572872e-02
59            	-3.307145e-03	1.487145e+00	-5.914062e-02	-3.287745e-02	-2.626316e-02
60            	-3.303554e-03	1.488541e+00	-6.016844e-02	-3.338777e-02	-2.678067e-02
61            	-3.299921e-03	1.489859e+00	-6.116367e-02	-3.388175e-02	-2.728191e-02
62            	-3.296267e-03	1.491105e+00	-6.212787e-02	-3.436020e-02	-2.776767e-02
63            	-3.292595e-03	1.492283e+00	-6.306097e-02	-3.482308e-02	-2.823789e-02
64            	-3.288915e-03	1.493395e+00	-6.396383e-02	-3.527083e-02	-2.869300e-02
65            	-3.285234e-03	1.494444e+00	-6.483574e-02	-3.570311e-02	-2.913264e-02
66            	-3.281566e-03	1.495432e+00	-6.567788e-02	-3.612051e-02	-2.955738e-02
67            	-3.277922e-03	1.496363e+00	-6.649092e-02	-3.652338e-02	-2.996754e-02
68            	-3.274301e-03	1.497239e+00	-6.727438e-02	-3.691149e-02	-3.036289e-02
69            	-3.270715e-03	1.498064e+00	-6.802900e-02	-3.728522e-02	-3.074379e-02
70            	-3.267172e-03	1.498841e+00	-6.875571e-02	-3.764503e-02	-3.111068e-02
71            	-3.263688e-03	1.499572e+00	-6.945566e-02	-3.799152e-02	-3.146414e-02
72            	-3.260257e-03	1.500260e+00	-7.012887e-02	-3.832469e-02	-3.180418e-02
73            	-3.256893e-03	1.500908e+00	-7.077657e-02	-3.864518e-02	-3.213139e-02
74            	-3.253595e-03	1.501518e+00	-7.139889e-02	-3.895304e-02	-3.244585e-02
75            	-3.250366e-03	1.502093e+00	-7.199604e-02	-3.924839e-02	-3.274766e-02
76            	-3.247207e-03	1.502634e+00	-7.256859e-02	-3.953150e-02	-3.303709e-02
77            	-3.244123e-03	1.503144e+00	-7.311657e-02	-3.980241e-02	-3.331416e-02
78            	-3.241121e-03	1.503623e+00	-7.364047e-02	-4.006135e-02	-3.357911e-02
79            	-3.238196e-03	1.504074e+00	-7.414034e-02	-4.030837e-02	-3.383197e-02
80            	-3.235347e-03	1.504498e+00	-7.461621e-02	-4.054345e-02	-3.407276e-02
81            	-3.232575e-03	1.504898e+00	-7.506860e-02	-4.076688e-02	-3.430173e-02
82            	-3.229882e-03	1.505273e+00	-7.549857e-02	-4.097917e-02	-3.451940e-02
83            	-3.227266e-03	1.505626e+00	-7.590703e-02	-4.118078e-02	-3.472625e-02
84            	-3.224730e-03	1.505958e+00	-7.629534e-02	-4.137240e-02	-3.492294e-02
85            	-3.222273e-03	1.506269e+00	-7.666507e-02	-4.155481e-02	-3.511026e-02
86            	-3.219896e-03	1.506561e+00	-7.701741e-02	-4.172860e-02	-3.528881e-02
87            	-3.217593e-03	1.506837e+00	-7.735347e-02	-4.189433e-02	-3.545914e-02
88            	-3.215366e-03	1.507095e+00	-7.767394e-02	-4.205234e-02	-3.562161e-02
89            	-3.213214e-03	1.507338e+00	-7.797989e-02	-4.220316e-02	-3.577673e-02
90            	-3.211135e-03	1.507567e+00	-7.827178e-02	-4.234703e-02	-3.592476e-02
91            	-3.209126e-03	1.507782e+00	-7.855032e-02	-4.248429e-02	-3.606603e-02
92            	-3.207191e-03	1.507983e+00	-7.881649e-02	-4.261544e-02	-3.620105e-02
93            	-3.205324e-03	1.508173e+00	-7.907102e-02	-4.274083e-02	-3.633019e-02
94            	-3.203526e-03	1.508351e+00	-7.931439e-02	-4.286072e-02	-3.645367e-02
95            	-3.201793e-03	1.508518e+00	-7.954714e-02	-4.297536e-02	-3.657178e-02
96            	-3.200125e-03	1.508676e+00	-7.976953e-02	-4.308489e-02	-3.668464e-02
97            	-3.198529e-03	1.508827e+00	-7.998214e-02	-4.318960e-02	-3.679254e-02
98            	-3.196981e-03	1.508964e+00	-8.018410e-02	-4.328903e-02	-3.689507e-02
99            	-3.195501e-03	1.509096e+00	-8.037680e-02	-4.338390e-02	-3.699290e-02
100           	-3.194068e-03	1.509216e+00	-8.055943e-02	-4.347379e-02	-3.708565e-02
101           	-3.192700e-03	1.509332e+00	-8.073324e-02	-4.355932e-02	-3.717392e-02
102           	-3.191386e-03	1.509441e+00	-8.089787e-02	-4.364032e-02	-3.725755e-02
103           	-3.190121e-03	1.509542e+00	-8.105391e-02	-4.371708e-02	-3.733684e-02
104           	-3.188910e-03	1.509637e+00	-8.120172e-02	-4.378977e-02	-3.741195e-02
105           	-3.187746e-03	1.509726e+00	-8.134194e-02	-4.385872e-02	-3.748323e-02
106           	-3.186632e-03	1.509810e+00	-8.147488e-02	-4.392407e-02	-3.755081e-02
107           	-3.185559e-03	1.509889e+00	-8.160090e-02	-4.398601e-02	-3.761489e-02
108           	-3.184528e-03	1.509962e+00	-8.172032e-02	-4.404469e-02	-3.767563e-02
109           	-3.183547e-03	1.510033e+00	-8.183425e-02	-4.410067e-02	-3.773358e-02
110           	-3.182611e-03	1.510099e+00	-8.194248e-02	-4.415385e-02	-3.778863e-02
111           	-3.181708e-03	1.510160e+00	-8.204533e-02	-4.420437e-02	-3.784096e-02
112           	-3.180850e-03	1.510219e+00	-8.214341e-02	-4.425256e-02	-3.789086e-02
113           	-3.180022e-03	1.510273e+00	-8.223668e-02	-4.429836e-02	-3.793832e-02
114           	-3.179233e-03	1.510324e+00	-8.232545e-02	-4.434196e-02	-3.798349e-02
115           	-3.178477e-03	1.510372e+00	-8.241010e-02	-4.438353e-02	-3.802657e-02
116           	-3.177754e-03	1.510417e+00	-8.249031e-02	-4.442291e-02	-3.806740e-02
117           	-3.177061e-03	1.510460e+00	-8.256658e-02	-4.446035e-02	-3.810623e-02
118           	-3.176401e-03	1.510500e+00	-8.263884e-02	-4.449582e-02	-3.814302e-02
119           	-3.175767e-03	1.510537e+00	-8.270746e-02	-4.452950e-02	-3.817796e-02
120           	-3.175163e-03	1.510573e+00	-8.277245e-02	-4.456139e-02	-3.821106e-02
121           	-3.174582e-03	1.510606e+00	-8.283416e-02	-4.459166e-02	-3.824250e-02
122           	-3.174029e-03	1.510638e+00	-8.289257e-02	-4.462031e-02	-3.827226e-02
123           	-3.173498e-03	1.510667e+00	-8.294808e-02	-4.464754e-02	-3.830054e-02
124           	-3.172993e-03	1.510694e+00	-8.300069e-02	-4.467334e-02	-3.832735e-02
125           	-3.172508e-03	1.510720e+00	-8.305076e-02	-4.469789e-02	-3.835287e-02
126           	-3.172048e-03	1.510745e+00	-8.309828e-02	-4.472119e-02	-3.837709e-02
127           	-3.171606e-03	1.510768e+00	-8.314355e-02	-4.474338e-02	-3.840017e-02
128           	-3.171187e-03	1.510790e+00	-8.318655e-02	-4.476446e-02	-3.842209e-02
129           	-3.170784e-03	1.510810e+00	-8.322755e-02	-4.478456e-02	-3.844299e-02
130           	-3.170403e-03	1.510829e+00	-8.326648e-02	-4.480364e-02	-3.846284e-02
131           	-3.170036e-03	1.510847e+00	-8.330362e-02	-4.482185e-02	-3.848178e-02
132           	-3.169688e-03	1.510865e+00	-8.333887e-02	-4.483912e-02	-3.849975e-02
133           	-3.169354e-03	1.510881e+00	-8.337247e-02	-4.485559e-02	-3.851688e-02
134           	-3.169037e-03	1.510896e+00	-8.340432e-02	-4.487120e-02	-3.853312e-02
135           	-3.168733e-03	1.510910e+00	-8.343466e-02	-4.488606e-02	-3.854860e-02
136           	-3.168446e-03	1.510923e+00	-8.346337e-02	-4.490013e-02	-3.856324e-02
137           	-3.168169e-03	1.510936e+00	-8.349069e-02	-4.491352e-02	-3.857718e-02
138           	-3.167908e-03	1.510948e+00	-8.351651e-02	-4.492616e-02	-3.859035e-02
139           	-3.167656e-03	1.510959e+00	-8.354106e-02	-4.493819e-02	-3.860287e-02
140           	-3.167419e-03	1.510970e+00	-8.356422e-02	-4.494953e-02	-3.861469e-02
141           	-3.167191e-03	1.510980e+00	-8.358624e-02	-4.496031e-02	-3.862593e-02
142           	-3.166976e-03	1.510990e+00	-8.360699e-02	-4.497047e-02	-3.863652e-02
143           	-3.166769e-03	1.510998e+00	-8.362672e-02	-4.498013e-02	-3.864659e-02
144           	-3.166574e-03	1.511007e+00	-8.364531e-02	-4.498923e-02	-3.865608e-02
145           	-3.166386e-03	1.511015e+00	-8.366298e-02	-4.499788e-02	-3.866511e-02
146           	-3.166209e-03	1.511023e+00	-8.367964e-02	-4.500603e-02	-3.867361e-02
147           	-3.166039e-03	1.511030e+00	-8.369548e-02	-4.501378e-02	-3.868170e-02
148           	-3.165879e-03	1.511036e+00	-8.371041e-02	-4.502108e-02	-3.868932e-02
149           	-3.165724e-03	1.511043e+00	-8.372462e-02	-4.502803e-02	-3.869659e-02
150           	-3.165579e-03	1.511049e+00	-8.373801e-02	-4.503458e-02	-3.870342e-02
151           	-3.165438e-03	1.511054e+00	-8.375077e-02	-4.504082e-02	-3.870994e-02
152           	-3.165308e-03	1.511060e+00	-8.376279e-02	-4.504670e-02	-3.871609e-02
153           	-3.165180e-03	1.511065e+00	-8.377423e-02	-4.505230e-02	-3.872194e-02
154           	-3.165061e-03	1.511070e+00	-8.378500e-02	-4.505756e-02	-3.872744e-02
155           	-3.164946e-03	1.511074e+00	-8.379530e-02	-4.506260e-02	-3.873271e-02
156           	-3.164838e-03	1.511079e+00	-8.380497e-02	-4.506732e-02	-3.873764e-02
157           	-3.164733e-03	1.511083e+00	-8.381419e-02	-4.507183e-02	-3.874236e-02
158           	-3.164636e-03	1.511087e+00	-8.382285e-02	-4.507606e-02	-3.874679e-02
159           	-3.164541e-03	1.511090e+00	-8.383114e-02	-4.508011e-02	-3.875103e-02
160           	-3.164454e-03	1.511094e+00	-8.383889e-02	-4.508390e-02	-3.875499e-02
161           	-3.164367e-03	1.511097e+00	-8.384631e-02	-4.508752e-02	-3.875879e-02
162           	-3.164288e-03	1.511100e+00	-8.385325e-02	-4.509091e-02	-3.876234e-02
163           	-3.164210e-03	1.511103e+00	-8.385990e-02	-4.509416e-02	-3.876574e-02
164           	-3.164139e-03	1.511106e+00	-8.386611e-02	-4.509719e-02	-3.876891e-02
165           	-3.164068e-03	1.511108e+00	-8.387207e-02	-4.510010e-02	-3.877197e-02
166           	-3.164004e-03	1.511111e+00	-8.387761e-02	-4.510281e-02	-3.877480e-02
167           	-3.163939e-03	1.511113e+00	-8.388295e-02	-4.510541e-02	-3.877754e-02
168           	-3.163881e-03	1.511115e+00	-8.388791e-02	-4.510783e-02	-3.878007e-02
169           	-3.163823e-03	1.511117e+00	-8.389269e-02	-4.511017e-02	-3.878252e-02
170           	-3.163771e-03	1.511119e+00	-8.389711e-02	-4.511233e-02	-3.878479e-02
171           	-3.163718e-03	1.511121e+00	-8.390139e-02	-4.511442e-02	-3.878698e-02
172           	-3.163671e-03	1.511123e+00	-8.390535e-02	-4.511635e-02	-3.878900e-02
173           	-3.163623e-03	1.511125e+00	-8.390918e-02	-4.511821e-02	-3.879097e-02
174           	-3.163581e-03	1.511127e+00	-8.391271e-02	-4.511994e-02	-3.879278e-02
175           	-3.163538e-03	1.511128e+00	-8.391615e-02	-4.512161e-02	-3.879454e-02
176           	-3.163499e-03	1.511129e+00	-8.391930e-02	-4.512315e-02	-3.879615e-02
177           	-3.163460e-03	1.511131e+00	-8.392237e-02	-4.512465e-02	-3.879773e-02
178           	-3.163426e-03	1.511132e+00	-8.392519e-02	-4.512602e-02	-3.879917e-02
179           	-3.163390e-03	1.511133e+00	-8.392794e-02	-4.512736e-02	-3.880058e-02
180           	-3.163359e-03	1.511135e+00	-8.393045e-02	-4.512859e-02	-3.880187e-02
181           	-3.163327e-03	1.511136e+00	-8.393292e-02	-4.512979e-02	-3.880314e-02
182           	-3.163299e-03	1.511137e+00	-8.393517e-02	-4.513088e-02	-3.880428e-02
183           	-3.163270e-03	1.511138e+00	-8.393738e-02	-4.513196e-02	-3.880542e-02
184           	-3.163245e-03	1.511139e+00	-8.393937e-02	-4.513293e-02	-3.880644e-02
185           	-3.163219e-03	1.511140e+00	-8.394136e-02	-4.513390e-02	-3.880746e-02
186           	-3.163196e-03	1.511140e+00	-8.394313e-02	-4.513476e-02	-3.880837e-02
187           	-3.163172e-03	1.511141e+00	-8.394491e-02	-4.513563e-02	-3.880928e-02
188           	-3.163152e-03	1.511142e+00	-8.394649e-02	-4.513640e-02	-3.881010e-02
189           	-3.163130e-03	1.511143e+00	-8.394809e-02	-4.513717e-02	-3.881091e-02
190           	-3.163112e-03	1.511143e+00	-8.394950e-02	-4.513786e-02	-3.881164e-02
191           	-3.163093e-03	1.511144e+00	-8.395092e-02	-4.513855e-02	-3.881237e-02
192           	-3.163077e-03	1.511145e+00	-8.395218e-02	-4.513917e-02	-3.881301e-02
193           	-3.163059e-03	1.511145e+00	-8.395346e-02	-4.513979e-02	-3.881367e-02
194           	-3.163044e-03	1.511146e+00	-8.395458e-02	-4.514033e-02	-3.881424e-02
195           	-3.163028e-03	1.511146e+00	-8.395573e-02	-4.514089e-02	-3.881484e-02
196           	-3.163015e-03	1.511147e+00	-8.395672e-02	-4.514138e-02	-3.881535e-02
197           	-3.163000e-03	1.511147e+00	-8.395776e-02	-4.514188e-02	-3.881588e-02
198           	-3.162989e-03	1.511148e+00	-8.395864e-02	-4.514231e-02	-3.881633e-02
199           	-3.162975e-03	1.511148e+00	-8.395957e-02	-4.514276e-02	-3.881681e-02
200           	-3.162965e-03	1.511149e+00	-8.396036e-02	-4.514314e-02	-3.881721e-02
201           	-3.162952e-03	1.511149e+00	-8.396120e-02	-4.514355e-02	-3.881765e-02
202           	-3.162943e-03	1.511149e+00	-8.396189e-02	-4.514389e-02	-3.881800e-02
203           	-3.162932e-03	1.511150e+00	-8.396265e-02	-4.514426e-02	-3.881839e-02
204           	-3.162924e-03	1.511150e+00	-8.396327e-02	-4.514456e-02	-3.881871e-02
205           	-3.162914e-03	1.511150e+00	-8.396395e-02	-4.514489e-02	-3.881906e-02
206           	-3.162907e-03	1.511151e+00	-8.396449e-02	-4.514515e-02	-3.881934e-02
207           	-3.162897e-03	1.511151e+00	-8.396510e-02	-4.514545e-02	-3.881966e-02
208           	-3.162891e-03	1.511151e+00	-8.396559e-02	-4.514569e-02	-3.881990e-02
209           	-3.162882e-03	1.511151e+00	-8.396614e-02	-4.514595e-02	-3.882019e-02
210           	-3.162877e-03	1.511152e+00	-8.396657e-02	-4.514616e-02	-3.882041e-02
211           	-3.162869e-03	1.511152e+00	-8.396707e-02	-4.514640e-02	-3.882066e-02
