# Force coefficients
# liftDir     : (0.000000e+00 0.000000e+00 1.000000e+00)
# dragDir     : (0.000000e+00 1.000000e+00 0.000000e+00)
# pitchAxis   : (1.000000e+00 0.000000e+00 0.000000e+00)
# magUInf     : 8.632134e-02
# lRef        : 4.000000e+00
# Aref        : 2.562000e-02
# CofR        : (0.000000e+00 0.000000e+00 0.000000e+00)
# Time        	Cm            	Cd            	Cl            	Cl(f)         	Cl(r)         
1             	-9.198517e-04	2.144135e-01	-2.436243e-02	-1.310106e-02	-1.126136e-02
2             	-3.133182e-03	8.090930e-01	-8.148058e-02	-4.387347e-02	-3.760711e-02
3             	-3.455935e-03	1.024023e+00	-4.191337e-02	-2.441262e-02	-1.750075e-02
4             	-2.724424e-03	9.899333e-01	2.267105e-02	8.611103e-03	1.405995e-02
5             	-2.015912e-03	9.094145e-01	5.796773e-02	2.696795e-02	3.099978e-02
6             	-1.668288e-03	8.562602e-01	6.732347e-02	3.199345e-02	3.533002e-02
7             	-1.524682e-03	8.208632e-01	6.170096e-02	2.932580e-02	3.237516e-02
8             	-1.702103e-03	8.334373e-01	4.589316e-02	2.124448e-02	2.464868e-02
9             	-1.885150e-03	8.432770e-01	3.496734e-02	1.559852e-02	1.936882e-02
10            	-2.070366e-03	8.618254e-01	2.172326e-02	8.791266e-03	1.293200e-02
11            	-2.202270e-03	8.773953e-01	1.100034e-02	3.297897e-03	7.702438e-03
12            	-2.311008e-03	8.917976e-01	4.209466e-04	-2.100535e-03	2.521482e-03
13            	-2.387948e-03	9.033777e-01	-1.327245e-02	-9.024174e-03	-4.248278e-03
14            	-2.392569e-03	9.038500e-01	-2.132849e-02	-1.305681e-02	-8.271676e-03
15            	-2.385767e-03	8.992339e-01	-2.362615e-02	-1.419884e-02	-9.427309e-03
16            	-2.410958e-03	8.961044e-01	-2.219861e-02	-1.351026e-02	-8.688345e-03
17            	-2.477384e-03	8.970272e-01	-1.838814e-02	-1.167145e-02	-6.716687e-03
18            	-2.571295e-03	9.012013e-01	-1.302257e-02	-9.082582e-03	-3.939991e-03
19            	-2.677527e-03	9.075210e-01	-7.330385e-03	-6.342720e-03	-9.876652e-04
20            	-2.780739e-03	9.146724e-01	-2.359652e-03	-3.960565e-03	1.600913e-03
21            	-2.869275e-03	9.213774e-01	1.447401e-03	-2.145575e-03	3.592976e-03
22            	-2.933564e-03	9.266104e-01	4.212610e-03	-8.272591e-04	5.039869e-03
23            	-2.976341e-03	9.304706e-01	6.454183e-03	2.507507e-04	6.203432e-03
24            	-3.001123e-03	9.331750e-01	8.844168e-03	1.420961e-03	7.423207e-03
25            	-3.013025e-03	9.352358e-01	1.164358e-02	2.808767e-03	8.834816e-03
26            	-3.016504e-03	9.368930e-01	1.459870e-02	4.282846e-03	1.031585e-02
27            	-3.017227e-03	9.389115e-01	1.754084e-02	5.753192e-03	1.178764e-02
28            	-3.016400e-03	9.413501e-01	2.008920e-02	7.028199e-03	1.306100e-02
29            	-3.014456e-03	9.440657e-01	2.190408e-02	7.937585e-03	1.396650e-02
30            	-3.010619e-03	9.466788e-01	2.284977e-02	8.414265e-03	1.443550e-02
31            	-3.004790e-03	9.489441e-01	2.295062e-02	8.470522e-03	1.448010e-02
32            	-2.998730e-03	9.509339e-01	2.235434e-02	8.178441e-03	1.417590e-02
33            	-2.992435e-03	9.523753e-01	2.124980e-02	7.632468e-03	1.361734e-02
34            	-2.987203e-03	9.532583e-01	1.986360e-02	6.944597e-03	1.291900e-02
35            	-2.984213e-03	9.536972e-01	1.840970e-02	6.220637e-03	1.218906e-02
36            	-2.984265e-03	9.538802e-01	1.708383e-02	5.557652e-03	1.152618e-02
37            	-2.986849e-03	9.539385e-01	1.603224e-02	5.029270e-03	1.100297e-02
38            	-2.990402e-03	9.538398e-01	1.530109e-02	4.660142e-03	1.064095e-02
39            	-2.993242e-03	9.535039e-01	1.487372e-02	4.443620e-03	1.043010e-02
40            	-2.996134e-03	9.530227e-01	1.472505e-02	4.366393e-03	1.035866e-02
41            	-3.001158e-03	9.526294e-01	1.485848e-02	4.428081e-03	1.043040e-02
42            	-3.009092e-03	9.524682e-01	1.532536e-02	4.653587e-03	1.067177e-02
43            	-3.020157e-03	9.525743e-01	1.615818e-02	5.058935e-03	1.109925e-02
44            	-3.033092e-03	9.528526e-01	1.725309e-02	5.593452e-03	1.165964e-02
45            	-3.045810e-03	9.530727e-01	1.845032e-02	6.179350e-03	1.227097e-02
46            	-3.057446e-03	9.531804e-01	1.956018e-02	6.722645e-03	1.283754e-02
47            	-3.068453e-03	9.532973e-01	2.047036e-02	7.166726e-03	1.330363e-02
48            	-3.079895e-03	9.536541e-01	2.113009e-02	7.485149e-03	1.364494e-02
49            	-3.093325e-03	9.545509e-01	2.155805e-02	7.685699e-03	1.387235e-02
50            	-3.110071e-03	9.562827e-01	2.178331e-02	7.781584e-03	1.400172e-02
51            	-3.131965e-03	9.591582e-01	2.187324e-02	7.804655e-03	1.406858e-02
52            	-3.160331e-03	9.633903e-01	2.205400e-02	7.866670e-03	1.418733e-02
53            	-3.191239e-03	9.683631e-01	2.237547e-02	7.996499e-03	1.437898e-02
54            	-3.219151e-03	9.730366e-01	2.288984e-02	8.225768e-03	1.466407e-02
55            	-3.240315e-03	9.767081e-01	2.365946e-02	8.589413e-03	1.507004e-02
56            	-3.253642e-03	9.789171e-01	2.468371e-02	9.088213e-03	1.559550e-02
57            	-3.260238e-03	9.794878e-01	2.594400e-02	9.711763e-03	1.623224e-02
58            	-3.262997e-03	9.786052e-01	2.737911e-02	1.042656e-02	1.695255e-02
59            	-3.264860e-03	9.765848e-01	2.896206e-02	1.121617e-02	1.774589e-02
60            	-3.267125e-03	9.736580e-01	3.058716e-02	1.202646e-02	1.856071e-02
61            	-3.270635e-03	9.702815e-01	3.203241e-02	1.274557e-02	1.928684e-02
62            	-3.275906e-03	9.669581e-01	3.310224e-02	1.327521e-02	1.982703e-02
63            	-3.286640e-03	9.647225e-01	3.354625e-02	1.348648e-02	2.005976e-02
64            	-3.299878e-03	9.636340e-01	3.347285e-02	1.343655e-02	2.003630e-02
65            	-3.312715e-03	9.634221e-01	3.315460e-02	1.326458e-02	1.989001e-02
66            	-3.325708e-03	9.641580e-01	3.295866e-02	1.315362e-02	1.980504e-02
67            	-3.342599e-03	9.662101e-01	3.370006e-02	1.350743e-02	2.019263e-02
68            	-3.360265e-03	9.690912e-01	3.694592e-02	1.511270e-02	2.183323e-02
69            	-3.368188e-03	9.711140e-01	4.348360e-02	1.837361e-02	2.510999e-02
70            	-3.359762e-03	9.708002e-01	5.229891e-02	2.278969e-02	2.950922e-02
71            	-3.338835e-03	9.683052e-01	6.115018e-02	2.723625e-02	3.391392e-02
72            	-3.314461e-03	9.647507e-01	6.775883e-02	3.056496e-02	3.719388e-02
73            	-3.295128e-03	9.613487e-01	7.082222e-02	3.211598e-02	3.870624e-02
74            	-3.280132e-03	9.581297e-01	7.046279e-02	3.195126e-02	3.851153e-02
75            	-3.267900e-03	9.550599e-01	6.741231e-02	3.043825e-02	3.697406e-02
76            	-3.257336e-03	9.520748e-01	6.282938e-02	2.815736e-02	3.467203e-02
77            	-3.247895e-03	9.492113e-01	5.766200e-02	2.558310e-02	3.207889e-02
78            	-3.240284e-03	9.467677e-01	5.258506e-02	2.305225e-02	2.953281e-02
79            	-3.234508e-03	9.450147e-01	4.807170e-02	2.080134e-02	2.727036e-02
80            	-3.229758e-03	9.440783e-01	4.436832e-02	1.895440e-02	2.541392e-02
81            	-3.226758e-03	9.442952e-01	4.167573e-02	1.761111e-02	2.406462e-02
82            	-3.227390e-03	9.461296e-01	4.012898e-02	1.683710e-02	2.329188e-02
83            	-3.235860e-03	9.501150e-01	3.967124e-02	1.659976e-02	2.307148e-02
84            	-3.253281e-03	9.560591e-01	4.006338e-02	1.677841e-02	2.328497e-02
85            	-3.275438e-03	9.630831e-01	4.101033e-02	1.722973e-02	2.378060e-02
86            	-3.296221e-03	9.700124e-01	4.215610e-02	1.778183e-02	2.437427e-02
87            	-3.311381e-03	9.759342e-01	4.316458e-02	1.827091e-02	2.489367e-02
88            	-3.321043e-03	9.805510e-01	4.380606e-02	1.858199e-02	2.522407e-02
89            	-3.324642e-03	9.836128e-01	4.406621e-02	1.870846e-02	2.535775e-02
90            	-3.319573e-03	9.847524e-01	4.409443e-02	1.872764e-02	2.536679e-02
91            	-3.302508e-03	9.833216e-01	4.439564e-02	1.889531e-02	2.550033e-02
92            	-3.277013e-03	9.797490e-01	4.562325e-02	1.953461e-02	2.608864e-02
93            	-3.250516e-03	9.753488e-01	4.809394e-02	2.079645e-02	2.729749e-02
94            	-3.226290e-03	9.704851e-01	5.201265e-02	2.278004e-02	2.923262e-02
95            	-3.206977e-03	9.655669e-01	5.678252e-02	2.518428e-02	3.159824e-02
96            	-3.193922e-03	9.609913e-01	6.145163e-02	2.753189e-02	3.391974e-02
97            	-3.186316e-03	9.568729e-01	6.497028e-02	2.929883e-02	3.567146e-02
98            	-3.180751e-03	9.533231e-01	6.642576e-02	3.003213e-02	3.639363e-02
99            	-3.173757e-03	9.501248e-01	6.570352e-02	2.967800e-02	3.602552e-02
100           	-3.164371e-03	9.473231e-01	6.294277e-02	2.830702e-02	3.463576e-02
101           	-3.151360e-03	9.450637e-01	5.821063e-02	2.595396e-02	3.225668e-02
102           	-3.134949e-03	9.433797e-01	5.156697e-02	2.264853e-02	2.891843e-02
103           	-3.115708e-03	9.420856e-01	4.338025e-02	1.857442e-02	2.480583e-02
104           	-3.097182e-03	9.413436e-01	3.442857e-02	1.411711e-02	2.031147e-02
105           	-3.085116e-03	9.416768e-01	2.589505e-02	9.862411e-03	1.603264e-02
106           	-3.081429e-03	9.429979e-01	1.924346e-02	6.540304e-03	1.270316e-02
107           	-3.085483e-03	9.450384e-01	1.536035e-02	4.594694e-03	1.076566e-02
108           	-3.095032e-03	9.473630e-01	1.468214e-02	4.246038e-03	1.043610e-02
109           	-3.108621e-03	9.497394e-01	1.730128e-02	5.542020e-03	1.175926e-02
110           	-3.125897e-03	9.521040e-01	2.284993e-02	8.299066e-03	1.455086e-02
111           	-3.143813e-03	9.541353e-01	3.022917e-02	1.197077e-02	1.825840e-02
112           	-3.160521e-03	9.557783e-01	3.822231e-02	1.595063e-02	2.227167e-02
113           	-3.176226e-03	9.570113e-01	4.594464e-02	1.979610e-02	2.614855e-02
114           	-3.197092e-03	9.584148e-01	5.287157e-02	2.323869e-02	2.963288e-02
115           	-3.227779e-03	9.604780e-01	5.842565e-02	2.598505e-02	3.244060e-02
116           	-3.265281e-03	9.629018e-01	6.206132e-02	2.776538e-02	3.429594e-02
117           	-3.293926e-03	9.641757e-01	6.315338e-02	2.828276e-02	3.487062e-02
118           	-3.308596e-03	9.640813e-01	6.192102e-02	2.765191e-02	3.426911e-02
119           	-3.314596e-03	9.634363e-01	5.920176e-02	2.628629e-02	3.291548e-02
120           	-3.316797e-03	9.628164e-01	5.581819e-02	2.459230e-02	3.122589e-02
121           	-3.318715e-03	9.626975e-01	5.252694e-02	2.294476e-02	2.958219e-02
122           	-3.323533e-03	9.634927e-01	4.997557e-02	2.166425e-02	2.831132e-02
123           	-3.331604e-03	9.650920e-01	4.837594e-02	2.085636e-02	2.751957e-02
124           	-3.340985e-03	9.670583e-01	4.745967e-02	2.038885e-02	2.707082e-02
125           	-3.348736e-03	9.688463e-01	4.684453e-02	2.007353e-02	2.677100e-02
126           	-3.355963e-03	9.706130e-01	4.618605e-02	1.973706e-02	2.644899e-02
127           	-3.365081e-03	9.728136e-01	4.535755e-02	1.931369e-02	2.604386e-02
128           	-3.377469e-03	9.757825e-01	4.429442e-02	1.876974e-02	2.552468e-02
129           	-3.394441e-03	9.798428e-01	4.285334e-02	1.803223e-02	2.482111e-02
130           	-3.412170e-03	9.842467e-01	4.089223e-02	1.703394e-02	2.385828e-02
131           	-3.428281e-03	9.883242e-01	3.837572e-02	1.575958e-02	2.261614e-02
132           	-3.441960e-03	9.916886e-01	3.550664e-02	1.431136e-02	2.119528e-02
133           	-3.452217e-03	9.940544e-01	3.266580e-02	1.288069e-02	1.978512e-02
134           	-3.455958e-03	9.948354e-01	3.042747e-02	1.175778e-02	1.866969e-02
135           	-3.451160e-03	9.938108e-01	2.929303e-02	1.119535e-02	1.809767e-02
136           	-3.436252e-03	9.907151e-01	2.962615e-02	1.137683e-02	1.824933e-02
137           	-3.412278e-03	9.856406e-01	3.158827e-02	1.238186e-02	1.920641e-02
138           	-3.384247e-03	9.794545e-01	3.472288e-02	1.397719e-02	2.074569e-02
139           	-3.356731e-03	9.731935e-01	3.821781e-02	1.575218e-02	2.246564e-02
140           	-3.335549e-03	9.683694e-01	4.107247e-02	1.720068e-02	2.387178e-02
141           	-3.322915e-03	9.657573e-01	4.248834e-02	1.792125e-02	2.456708e-02
142           	-3.317575e-03	9.653881e-01	4.211956e-02	1.774220e-02	2.437735e-02
143           	-3.317662e-03	9.669101e-01	4.014580e-02	1.675524e-02	2.339056e-02
144           	-3.320168e-03	9.696382e-01	3.736470e-02	1.536218e-02	2.200252e-02
145           	-3.326648e-03	9.735640e-01	3.490279e-02	1.412475e-02	2.077805e-02
146           	-3.335101e-03	9.783557e-01	3.441522e-02	1.387251e-02	2.054271e-02
147           	-3.335183e-03	9.822671e-01	3.730451e-02	1.531707e-02	2.198744e-02
148           	-3.323040e-03	9.843815e-01	4.335428e-02	1.835410e-02	2.500018e-02
149           	-3.301109e-03	9.846849e-01	5.088636e-02	2.214207e-02	2.874429e-02
150           	-3.273302e-03	9.834754e-01	5.796876e-02	2.571108e-02	3.225768e-02
151           	-3.239278e-03	9.803773e-01	6.326607e-02	2.839376e-02	3.487231e-02
152           	-3.196659e-03	9.749856e-01	6.636965e-02	2.998817e-02	3.638148e-02
153           	-3.149210e-03	9.678776e-01	6.774291e-02	3.072224e-02	3.702066e-02
154           	-3.105784e-03	9.603597e-01	6.813996e-02	3.096420e-02	3.717577e-02
155           	-3.073517e-03	9.536768e-01	6.808185e-02	3.096741e-02	3.711444e-02
156           	-3.054538e-03	9.485317e-01	6.768166e-02	3.078629e-02	3.689537e-02
157           	-3.046474e-03	9.450149e-01	6.686225e-02	3.038465e-02	3.647760e-02
158           	-3.044630e-03	9.429044e-01	6.560013e-02	2.975544e-02	3.584469e-02
159           	-3.044790e-03	9.415177e-01	6.377391e-02	2.884216e-02	3.493174e-02
160           	-3.045407e-03	9.404245e-01	6.120634e-02	2.755777e-02	3.364858e-02
161           	-3.047716e-03	9.399017e-01	5.768470e-02	2.579463e-02	3.189007e-02
162           	-3.054099e-03	9.405434e-01	5.354708e-02	2.371944e-02	2.982764e-02
163           	-3.071571e-03	9.435425e-01	4.980341e-02	2.183014e-02	2.797328e-02
164           	-3.100081e-03	9.489459e-01	4.736101e-02	2.058042e-02	2.678058e-02
165           	-3.128427e-03	9.547583e-01	4.598621e-02	1.986468e-02	2.612153e-02
166           	-3.150629e-03	9.597786e-01	4.519679e-02	1.944777e-02	2.574903e-02
167           	-3.160843e-03	9.628865e-01	4.469481e-02	1.918656e-02	2.550825e-02
168           	-3.160687e-03	9.644873e-01	4.428410e-02	1.898136e-02	2.530274e-02
169           	-3.151242e-03	9.648784e-01	4.370498e-02	1.870125e-02	2.500373e-02
170           	-3.135081e-03	9.645463e-01	4.242555e-02	1.807769e-02	2.434786e-02
171           	-3.112902e-03	9.634535e-01	3.997505e-02	1.687462e-02	2.310043e-02
172           	-3.088582e-03	9.619385e-01	3.603003e-02	1.492644e-02	2.110360e-02
173           	-3.070224e-03	9.609412e-01	3.041863e-02	1.213909e-02	1.827954e-02
174           	-3.069711e-03	9.616715e-01	2.419024e-02	9.025410e-03	1.516483e-02
175           	-3.089333e-03	9.643745e-01	1.838724e-02	6.104289e-03	1.228296e-02
176           	-3.122373e-03	9.681576e-01	1.387452e-02	3.814884e-03	1.005963e-02
177           	-3.159415e-03	9.718524e-01	1.093657e-02	2.308871e-03	8.627700e-03
178           	-3.194910e-03	9.747436e-01	9.777781e-03	1.693981e-03	8.083800e-03
179           	-3.227188e-03	9.767100e-01	1.027471e-02	1.910165e-03	8.364540e-03
180           	-3.257777e-03	9.780156e-01	1.212384e-02	2.804145e-03	9.319699e-03
181           	-3.287979e-03	9.789472e-01	1.498108e-02	4.202562e-03	1.077852e-02
182           	-3.319442e-03	9.799056e-01	1.842358e-02	5.892350e-03	1.253123e-02
183           	-3.348686e-03	9.810151e-01	2.186022e-02	7.581421e-03	1.427879e-02
184           	-3.372980e-03	9.821298e-01	2.493509e-02	9.094564e-03	1.584052e-02
185           	-3.389812e-03	9.829683e-01	2.756057e-02	1.039047e-02	1.717009e-02
186           	-3.398196e-03	9.832278e-01	2.978601e-02	1.149481e-02	1.829120e-02
187           	-3.397119e-03	9.825750e-01	3.176923e-02	1.248750e-02	1.928173e-02
188           	-3.387171e-03	9.810044e-01	3.373523e-02	1.348045e-02	2.025479e-02
189           	-3.369382e-03	9.785126e-01	3.593491e-02	1.459807e-02	2.133684e-02
190           	-3.345414e-03	9.752087e-01	3.863231e-02	1.597074e-02	2.266157e-02
191           	-3.316500e-03	9.711123e-01	4.202518e-02	1.769609e-02	2.432909e-02
192           	-3.282949e-03	9.660770e-01	4.618197e-02	1.980803e-02	2.637393e-02
193           	-3.248443e-03	9.607209e-01	5.066309e-02	2.208310e-02	2.857999e-02
194           	-3.219353e-03	9.563124e-01	5.452732e-02	2.404430e-02	3.048301e-02
195           	-3.200097e-03	9.538732e-01	5.691929e-02	2.525955e-02	3.165974e-02
196           	-3.192016e-03	9.537805e-01	5.737999e-02	2.549798e-02	3.188201e-02
197           	-3.194562e-03	9.560839e-01	5.591993e-02	2.476540e-02	3.115452e-02
198           	-3.201960e-03	9.597600e-01	5.298102e-02	2.328855e-02	2.969247e-02
199           	-3.208719e-03	9.638755e-01	4.914001e-02	2.136128e-02	2.777872e-02
200           	-3.212570e-03	9.680908e-01	4.483534e-02	1.920510e-02	2.563024e-02
201           	-3.214545e-03	9.725192e-01	4.057410e-02	1.707250e-02	2.350159e-02
202           	-3.215465e-03	9.770825e-01	3.691443e-02	1.524175e-02	2.167268e-02
203           	-3.213720e-03	9.812100e-01	3.421112e-02	1.389184e-02	2.031928e-02
204           	-3.205679e-03	9.839531e-01	3.250681e-02	1.304773e-02	1.945908e-02
205           	-3.187966e-03	9.844603e-01	3.141447e-02	1.251927e-02	1.889520e-02
206           	-3.164451e-03	9.831289e-01	3.072627e-02	1.219868e-02	1.852759e-02
207           	-3.140254e-03	9.806926e-01	3.024890e-02	1.198419e-02	1.826470e-02
208           	-3.118848e-03	9.777254e-01	2.979361e-02	1.177796e-02	1.801565e-02
209           	-3.101914e-03	9.747327e-01	2.913742e-02	1.146680e-02	1.767063e-02
210           	-3.088568e-03	9.717952e-01	2.806079e-02	1.094183e-02	1.711896e-02
211           	-3.077398e-03	9.688665e-01	2.645532e-02	1.015026e-02	1.630506e-02
212           	-3.066662e-03	9.658297e-01	2.448304e-02	9.174856e-03	1.530818e-02
213           	-3.055566e-03	9.626753e-01	2.246382e-02	8.176346e-03	1.428748e-02
214           	-3.043112e-03	9.592132e-01	2.086718e-02	7.390477e-03	1.347670e-02
215           	-3.026961e-03	9.550498e-01	2.017394e-02	7.060010e-03	1.311393e-02
216           	-3.006529e-03	9.502194e-01	2.058756e-02	7.287249e-03	1.330031e-02
217           	-2.986880e-03	9.457677e-01	2.186830e-02	7.947271e-03	1.392103e-02
218           	-2.975438e-03	9.430850e-01	2.343779e-02	8.743456e-03	1.469433e-02
219           	-2.973946e-03	9.422285e-01	2.472163e-02	9.386870e-03	1.533476e-02
220           	-2.982032e-03	9.430841e-01	2.541868e-02	9.727306e-03	1.569137e-02
221           	-2.997283e-03	9.452270e-01	2.550135e-02	9.753391e-03	1.574796e-02
222           	-3.016595e-03	9.482244e-01	2.502184e-02	9.494325e-03	1.552751e-02
223           	-3.039756e-03	9.520595e-01	2.422593e-02	9.073209e-03	1.515272e-02
224           	-3.067143e-03	9.569007e-01	2.338705e-02	8.626382e-03	1.476067e-02
225           	-3.095183e-03	9.623942e-01	2.282926e-02	8.319448e-03	1.450981e-02
226           	-3.116777e-03	9.673775e-01	2.299404e-02	8.380244e-03	1.461380e-02
227           	-3.128413e-03	9.708577e-01	2.431889e-02	9.031034e-03	1.528786e-02
228           	-3.131206e-03	9.721880e-01	2.700824e-02	1.037291e-02	1.663533e-02
229           	-3.131746e-03	9.718831e-01	3.093340e-02	1.233495e-02	1.859844e-02
230           	-3.134398e-03	9.704029e-01	3.552732e-02	1.462926e-02	2.089806e-02
231           	-3.143976e-03	9.689570e-01	4.006060e-02	1.688632e-02	2.317427e-02
232           	-3.158797e-03	9.679535e-01	4.389860e-02	1.879050e-02	2.510810e-02
233           	-3.180899e-03	9.678601e-01	4.678080e-02	2.020950e-02	2.657130e-02
234           	-3.205146e-03	9.684173e-01	4.860578e-02	2.109774e-02	2.750803e-02
235           	-3.231545e-03	9.696679e-01	4.929071e-02	2.141381e-02	2.787690e-02
236           	-3.254503e-03	9.711578e-01	4.894242e-02	2.121671e-02	2.772571e-02
237           	-3.272098e-03	9.726021e-01	4.768306e-02	2.056943e-02	2.711363e-02
238           	-3.283049e-03	9.738251e-01	4.565167e-02	1.954279e-02	2.610889e-02
239           	-3.287509e-03	9.747987e-01	4.312676e-02	1.827587e-02	2.485089e-02
240           	-3.288726e-03	9.759225e-01	4.047044e-02	1.694649e-02	2.352395e-02
241           	-3.289462e-03	9.773013e-01	3.819420e-02	1.580764e-02	2.238656e-02
242           	-3.290925e-03	9.789108e-01	3.660618e-02	1.501216e-02	2.159401e-02
243           	-3.292641e-03	9.805846e-01	3.583691e-02	1.462582e-02	2.121110e-02
244           	-3.293429e-03	9.821067e-01	3.585319e-02	1.463316e-02	2.122002e-02
245           	-3.292820e-03	9.834092e-01	3.648375e-02	1.494905e-02	2.153470e-02
246           	-3.289814e-03	9.842641e-01	3.749341e-02	1.545689e-02	2.203652e-02
247           	-3.284163e-03	9.845534e-01	3.861520e-02	1.602344e-02	2.259176e-02
248           	-3.275738e-03	9.843106e-01	3.974835e-02	1.659844e-02	2.314991e-02
249           	-3.264409e-03	9.835658e-01	4.082494e-02	1.714806e-02	2.367688e-02
250           	-3.250127e-03	9.823254e-01	4.181876e-02	1.765925e-02	2.415951e-02
251           	-3.233206e-03	9.805980e-01	4.265609e-02	1.809484e-02	2.456125e-02
252           	-3.213713e-03	9.784197e-01	4.329179e-02	1.843218e-02	2.485961e-02
253           	-3.191240e-03	9.758838e-01	4.360696e-02	1.861224e-02	2.499472e-02
254           	-3.165864e-03	9.730632e-01	4.364000e-02	1.865414e-02	2.498587e-02
255           	-3.138782e-03	9.701300e-01	4.338581e-02	1.855412e-02	2.483168e-02
256           	-3.111876e-03	9.673335e-01	4.281562e-02	1.829593e-02	2.451968e-02
257           	-3.086884e-03	9.648979e-01	4.194331e-02	1.788477e-02	2.405854e-02
258           	-3.064050e-03	9.627927e-01	4.081488e-02	1.734339e-02	2.347149e-02
259           	-3.045109e-03	9.612672e-01	3.955683e-02	1.673331e-02	2.282352e-02
260           	-3.029449e-03	9.603034e-01	3.821486e-02	1.607798e-02	2.213688e-02
261           	-3.018307e-03	9.601411e-01	3.681187e-02	1.538763e-02	2.142424e-02
262           	-3.012785e-03	9.609956e-01	3.530142e-02	1.463793e-02	2.066350e-02
263           	-3.011359e-03	9.625490e-01	3.362835e-02	1.380281e-02	1.982553e-02
264           	-3.009716e-03	9.640411e-01	3.171713e-02	1.284885e-02	1.886828e-02
265           	-3.005376e-03	9.649779e-01	2.956756e-02	1.177840e-02	1.778916e-02
266           	-2.998484e-03	9.652467e-01	2.727460e-02	1.063882e-02	1.663578e-02
267           	-2.991312e-03	9.650860e-01	2.500614e-02	9.511756e-03	1.549438e-02
268           	-2.986642e-03	9.648968e-01	2.292093e-02	8.473824e-03	1.444711e-02
269           	-2.985529e-03	9.649444e-01	2.121828e-02	7.623613e-03	1.359467e-02
270           	-2.988238e-03	9.653256e-01	1.984065e-02	6.932088e-03	1.290856e-02
271           	-2.994776e-03	9.661069e-01	1.873316e-02	6.371802e-03	1.236135e-02
272           	-3.005697e-03	9.674443e-01	1.782708e-02	5.907841e-03	1.191924e-02
273           	-3.020526e-03	9.692995e-01	1.708288e-02	5.520916e-03	1.156197e-02
274           	-3.035785e-03	9.711483e-01	1.647647e-02	5.202451e-03	1.127402e-02
275           	-3.049807e-03	9.725264e-01	1.590202e-02	4.901205e-03	1.100082e-02
276           	-3.060328e-03	9.731408e-01	1.525980e-02	4.569570e-03	1.069023e-02
277           	-3.067614e-03	9.730515e-01	1.455263e-02	4.208702e-03	1.034393e-02
278           	-3.072232e-03	9.723514e-01	1.393034e-02	3.892938e-03	1.003740e-02
279           	-3.075402e-03	9.712176e-01	1.360587e-02	3.727532e-03	9.878336e-03
280           	-3.078938e-03	9.699142e-01	1.374019e-02	3.791157e-03	9.949032e-03
281           	-3.084085e-03	9.686870e-01	1.442762e-02	4.129727e-03	1.029790e-02
282           	-3.091532e-03	9.676926e-01	1.566510e-02	4.741015e-03	1.092408e-02
283           	-3.100988e-03	9.670422e-01	1.733272e-02	5.565372e-03	1.176735e-02
284           	-3.112511e-03	9.666528e-01	1.939093e-02	6.582954e-03	1.280798e-02
285           	-3.126443e-03	9.665761e-01	2.177684e-02	7.761975e-03	1.401486e-02
286           	-3.142552e-03	9.668938e-01	2.425925e-02	8.987074e-03	1.527218e-02
287           	-3.159591e-03	9.676795e-01	2.643305e-02	1.005693e-02	1.637612e-02
288           	-3.175789e-03	9.688415e-01	2.793065e-02	1.078954e-02	1.714111e-02
289           	-3.189728e-03	9.701824e-01	2.868005e-02	1.115030e-02	1.752975e-02
290           	-3.200451e-03	9.715284e-01	2.882318e-02	1.121114e-02	1.761204e-02
291           	-3.207637e-03	9.727748e-01	2.860429e-02	1.109451e-02	1.750978e-02
292           	-3.211526e-03	9.738874e-01	2.828129e-02	1.092912e-02	1.735217e-02
293           	-3.212629e-03	9.748687e-01	2.806101e-02	1.081788e-02	1.724313e-02
294           	-3.211441e-03	9.757237e-01	2.806301e-02	1.082007e-02	1.724295e-02
295           	-3.208989e-03	9.764254e-01	2.831681e-02	1.094942e-02	1.736739e-02
296           	-3.204945e-03	9.769938e-01	2.883245e-02	1.121128e-02	1.762117e-02
297           	-3.199103e-03	9.774013e-01	2.964674e-02	1.162427e-02	1.802247e-02
298           	-3.190794e-03	9.776006e-01	3.083946e-02	1.222894e-02	1.861053e-02
299           	-3.180759e-03	9.774361e-01	3.233970e-02	1.298909e-02	1.935061e-02
300           	-3.169717e-03	9.768672e-01	3.399553e-02	1.382805e-02	2.016748e-02
301           	-3.157875e-03	9.759417e-01	3.566108e-02	1.467266e-02	2.098841e-02
302           	-3.145206e-03	9.747824e-01	3.723986e-02	1.547472e-02	2.176513e-02
303           	-3.131675e-03	9.734839e-01	3.866881e-02	1.620273e-02	2.246608e-02
304           	-3.117338e-03	9.721167e-01	3.991815e-02	1.684174e-02	2.307641e-02
305           	-3.102447e-03	9.707426e-01	4.095899e-02	1.737705e-02	2.358194e-02
306           	-3.087346e-03	9.694131e-01	4.175928e-02	1.779230e-02	2.396699e-02
307           	-3.072411e-03	9.681691e-01	4.229174e-02	1.807346e-02	2.421828e-02
308           	-3.057940e-03	9.670304e-01	4.252494e-02	1.820453e-02	2.432041e-02
309           	-3.044130e-03	9.660015e-01	4.242932e-02	1.817053e-02	2.425879e-02
310           	-3.031026e-03	9.650643e-01	4.196606e-02	1.795200e-02	2.401405e-02
311           	-3.018722e-03	9.642261e-01	4.108478e-02	1.752367e-02	2.356111e-02
312           	-3.007212e-03	9.634927e-01	3.973034e-02	1.685796e-02	2.287238e-02
313           	-2.996515e-03	9.628738e-01	3.788039e-02	1.594368e-02	2.193671e-02
314           	-2.986657e-03	9.623822e-01	3.559247e-02	1.480958e-02	2.078289e-02
315           	-2.977693e-03	9.620038e-01	3.293058e-02	1.348760e-02	1.944298e-02
316           	-2.969617e-03	9.617235e-01	3.000822e-02	1.203449e-02	1.797372e-02
317           	-2.962473e-03	9.615227e-01	2.696615e-02	1.052060e-02	1.644555e-02
318           	-2.956406e-03	9.613973e-01	2.394157e-02	9.014378e-03	1.492719e-02
319           	-2.951520e-03	9.613427e-01	2.105536e-02	7.576159e-03	1.347920e-02
320           	-2.947930e-03	9.613697e-01	1.839323e-02	6.248686e-03	1.214455e-02
321           	-2.945623e-03	9.614730e-01	1.601774e-02	5.063248e-03	1.095449e-02
322           	-2.944561e-03	9.616536e-01	1.397581e-02	4.043345e-03	9.932467e-03
323           	-2.944666e-03	9.619036e-01	1.229759e-02	3.204128e-03	9.093460e-03
324           	-2.945784e-03	9.621976e-01	1.100721e-02	2.557819e-03	8.449387e-03
325           	-2.947767e-03	9.625098e-01	1.010076e-02	2.102613e-03	7.998148e-03
326           	-2.950454e-03	9.628100e-01	9.548936e-03	1.824014e-03	7.724921e-03
327           	-2.953800e-03	9.630911e-01	9.298645e-03	1.695523e-03	7.603122e-03
328           	-2.957818e-03	9.633471e-01	9.283295e-03	1.683830e-03	7.599465e-03
329           	-2.963033e-03	9.636016e-01	9.443822e-03	1.758878e-03	7.684943e-03
330           	-2.969372e-03	9.638716e-01	9.732873e-03	1.897065e-03	7.835809e-03
331           	-2.976631e-03	9.641387e-01	1.012101e-02	2.083875e-03	8.037137e-03
332           	-2.984734e-03	9.643958e-01	1.058589e-02	2.308211e-03	8.277678e-03
333           	-2.993658e-03	9.646515e-01	1.112042e-02	2.566552e-03	8.553869e-03
334           	-3.003355e-03	9.649193e-01	1.172030e-02	2.856797e-03	8.863507e-03
335           	-3.013737e-03	9.652150e-01	1.237246e-02	3.172492e-03	9.199965e-03
336           	-3.024626e-03	9.655442e-01	1.306398e-02	3.507364e-03	9.556615e-03
337           	-3.035921e-03	9.659450e-01	1.378447e-02	3.856314e-03	9.928156e-03
338           	-3.047431e-03	9.664271e-01	1.452756e-02	4.216348e-03	1.031121e-02
339           	-3.058861e-03	9.669913e-01	1.528773e-02	4.585004e-03	1.070273e-02
340           	-3.069800e-03	9.676137e-01	1.607047e-02	4.965435e-03	1.110504e-02
341           	-3.079857e-03	9.682639e-01	1.687980e-02	5.360045e-03	1.151976e-02
342           	-3.088652e-03	9.689087e-01	1.772639e-02	5.774545e-03	1.195185e-02
343           	-3.095878e-03	9.695119e-01	1.861850e-02	6.213373e-03	1.240513e-02
344           	-3.101373e-03	9.700408e-01	1.956313e-02	6.680192e-03	1.288294e-02
345           	-3.105041e-03	9.704708e-01	2.056863e-02	7.179275e-03	1.338936e-02
346           	-3.106832e-03	9.707696e-01	2.163933e-02	7.712832e-03	1.392650e-02
347           	-3.106787e-03	9.709159e-01	2.276883e-02	8.277627e-03	1.449120e-02
348           	-3.104989e-03	9.708978e-01	2.395201e-02	8.871017e-03	1.508100e-02
349           	-3.101512e-03	9.707069e-01	2.517470e-02	9.485838e-03	1.568886e-02
350           	-3.096445e-03	9.703494e-01	2.641001e-02	1.010856e-02	1.630145e-02
351           	-3.089893e-03	9.698415e-01	2.762234e-02	1.072128e-02	1.690106e-02
352           	-3.082007e-03	9.692033e-01	2.876568e-02	1.130083e-02	1.746485e-02
353           	-3.072948e-03	9.684626e-01	2.978454e-02	1.181932e-02	1.796522e-02
354           	-3.062890e-03	9.676433e-01	3.062253e-02	1.224837e-02	1.837415e-02
355           	-3.052039e-03	9.667697e-01	3.123303e-02	1.256448e-02	1.866856e-02
356           	-3.040554e-03	9.658630e-01	3.157348e-02	1.274619e-02	1.882729e-02
357           	-3.028635e-03	9.649444e-01	3.161179e-02	1.277726e-02	1.883453e-02
358           	-3.016460e-03	9.640318e-01	3.132722e-02	1.264715e-02	1.868007e-02
359           	-3.004218e-03	9.631487e-01	3.070951e-02	1.235054e-02	1.835897e-02
360           	-2.992078e-03	9.623093e-01	2.976410e-02	1.188997e-02	1.787413e-02
361           	-2.980226e-03	9.615259e-01	2.851903e-02	1.127929e-02	1.723974e-02
362           	-2.968826e-03	9.608088e-01	2.701235e-02	1.053735e-02	1.647500e-02
363           	-2.958039e-03	9.601653e-01	2.529526e-02	9.689592e-03	1.560567e-02
364           	-2.948074e-03	9.596071e-01	2.342612e-02	8.764985e-03	1.466113e-02