# Force coefficients
# liftDir     : (0.000000e+00 0.000000e+00 1.000000e+00)
# dragDir     : (0.000000e+00 1.000000e+00 0.000000e+00)
# pitchAxis   : (1.000000e+00 0.000000e+00 0.000000e+00)
# magUInf     : 2.354218e-02
# lRef        : 4.000000e+00
# Aref        : 2.562000e-02
# CofR        : (0.000000e+00 0.000000e+00 0.000000e+00)
# Time        	Cm            	Cd            	Cl            	Cl(f)         	Cl(r)         
1             	-3.365836e-03	7.845330e-01	-8.912312e-02	-4.792739e-02	-4.119572e-02
2             	-5.880332e-03	1.483191e+00	-1.471375e-01	-7.944909e-02	-6.768843e-02
3             	-4.916232e-03	1.397831e+00	-6.149138e-02	-3.566192e-02	-2.582946e-02
4             	-3.245187e-03	1.122374e+00	2.456216e-02	9.035893e-03	1.552627e-02
5             	-2.247827e-03	9.444896e-01	7.136409e-02	3.343422e-02	3.792987e-02
6             	-1.844910e-03	8.703056e-01	8.439717e-02	4.035368e-02	4.404350e-02
7             	-1.910215e-03	8.808422e-01	7.332594e-02	3.475275e-02	3.857318e-02
8             	-2.189476e-03	9.376764e-01	4.959573e-02	2.260839e-02	2.698734e-02
9             	-2.371527e-03	9.782234e-01	3.484031e-02	1.504863e-02	1.979168e-02
10            	-2.506589e-03	1.014852e+00	1.982470e-02	7.405759e-03	1.241894e-02
11            	-2.591248e-03	1.040951e+00	9.539051e-03	2.178278e-03	7.360773e-03
12            	-2.627402e-03	1.057468e+00	2.362417e-03	-1.446194e-03	3.808611e-03
13            	-2.613978e-03	1.063388e+00	-1.964294e-03	-3.596125e-03	1.631830e-03
14            	-2.555045e-03	1.057207e+00	-2.616460e-03	-3.863276e-03	1.246815e-03
15            	-2.506942e-03	1.049822e+00	-1.691168e-04	-2.591500e-03	2.422383e-03
16            	-2.484801e-03	1.046248e+00	2.117376e-03	-1.426113e-03	3.543489e-03
17            	-2.481051e-03	1.045701e+00	2.868847e-03	-1.046628e-03	3.915475e-03
18            	-2.490581e-03	1.047706e+00	1.588432e-03	-1.696365e-03	3.284797e-03
19            	-2.507506e-03	1.051567e+00	-1.425478e-03	-3.220245e-03	1.794768e-03
20            	-2.522288e-03	1.055644e+00	-5.679805e-03	-5.362190e-03	-3.176151e-04
21            	-2.531325e-03	1.058867e+00	-1.048710e-02	-7.774877e-03	-2.712227e-03
22            	-2.535901e-03	1.060983e+00	-1.517436e-02	-1.012308e-02	-5.051277e-03
23            	-2.539639e-03	1.062429e+00	-1.927234e-02	-1.217581e-02	-7.096532e-03
24            	-2.545218e-03	1.063870e+00	-2.256698e-02	-1.382871e-02	-8.738269e-03
25            	-2.553308e-03	1.065458e+00	-2.493364e-02	-1.502013e-02	-9.913514e-03
26            	-2.562696e-03	1.067253e+00	-2.641684e-02	-1.577112e-02	-1.064573e-02
27            	-2.574196e-03	1.069152e+00	-2.713155e-02	-1.613997e-02	-1.099158e-02
28            	-2.587247e-03	1.071190e+00	-2.727610e-02	-1.622530e-02	-1.105080e-02
29            	-2.600923e-03	1.073340e+00	-2.696589e-02	-1.608387e-02	-1.088202e-02
30            	-2.614536e-03	1.075686e+00	-2.660479e-02	-1.591693e-02	-1.068786e-02
31            	-2.627026e-03	1.078053e+00	-2.637972e-02	-1.581689e-02	-1.056284e-02
32            	-2.637710e-03	1.080343e+00	-2.636420e-02	-1.581981e-02	-1.054439e-02
33            	-2.646006e-03	1.082459e+00	-2.658133e-02	-1.593667e-02	-1.064466e-02
34            	-2.651633e-03	1.084345e+00	-2.702941e-02	-1.616634e-02	-1.086307e-02
35            	-2.654594e-03	1.085991e+00	-2.768355e-02	-1.649637e-02	-1.118718e-02
36            	-2.655081e-03	1.087413e+00	-2.849707e-02	-1.690362e-02	-1.159346e-02
37            	-2.653701e-03	1.088741e+00	-2.945709e-02	-1.738225e-02	-1.207485e-02
38            	-2.650829e-03	1.089919e+00	-3.041261e-02	-1.785714e-02	-1.255548e-02
39            	-2.647497e-03	1.091160e+00	-3.138765e-02	-1.834132e-02	-1.304633e-02
40            	-2.644048e-03	1.092469e+00	-3.230539e-02	-1.879674e-02	-1.350865e-02
41            	-2.640834e-03	1.093855e+00	-3.313351e-02	-1.920759e-02	-1.392592e-02
42            	-2.638213e-03	1.095331e+00	-3.381833e-02	-1.954738e-02	-1.427095e-02
43            	-2.635541e-03	1.096837e+00	-3.448787e-02	-1.987947e-02	-1.460839e-02
44            	-2.632837e-03	1.098173e+00	-3.501769e-02	-2.014168e-02	-1.487601e-02
45            	-2.630266e-03	1.099454e+00	-3.549814e-02	-2.037934e-02	-1.511881e-02
46            	-2.627457e-03	1.100670e+00	-3.597842e-02	-2.061667e-02	-1.536175e-02
47            	-2.624257e-03	1.101831e+00	-3.647591e-02	-2.086221e-02	-1.561370e-02
48            	-2.620558e-03	1.102900e+00	-3.698106e-02	-2.111109e-02	-1.586997e-02
49            	-2.616319e-03	1.103846e+00	-3.747507e-02	-2.135385e-02	-1.612122e-02
50            	-2.611297e-03	1.104647e+00	-3.798924e-02	-2.160592e-02	-1.638332e-02
51            	-2.606281e-03	1.105356e+00	-3.843731e-02	-2.182494e-02	-1.661238e-02
52            	-2.600714e-03	1.105956e+00	-3.888788e-02	-2.204465e-02	-1.684323e-02
53            	-2.595386e-03	1.106515e+00	-3.927580e-02	-2.223329e-02	-1.704251e-02
54            	-2.589516e-03	1.106970e+00	-3.967261e-02	-2.242582e-02	-1.724679e-02
55            	-2.583487e-03	1.107334e+00	-4.005214e-02	-2.260956e-02	-1.744258e-02
56            	-2.577372e-03	1.107616e+00	-4.040879e-02	-2.278177e-02	-1.762702e-02
57            	-2.571224e-03	1.107827e+00	-4.073995e-02	-2.294120e-02	-1.779875e-02
58            	-2.565105e-03	1.107982e+00	-4.104447e-02	-2.308734e-02	-1.795713e-02
59            	-2.559110e-03	1.108099e+00	-4.132175e-02	-2.321999e-02	-1.810177e-02
60            	-2.553321e-03	1.108198e+00	-4.156971e-02	-2.333817e-02	-1.823153e-02
61            	-2.547957e-03	1.108329e+00	-4.178780e-02	-2.344186e-02	-1.834595e-02
62            	-2.542892e-03	1.108462e+00	-4.197274e-02	-2.352926e-02	-1.844348e-02
63            	-2.538185e-03	1.108608e+00	-4.212353e-02	-2.359995e-02	-1.852358e-02
64            	-2.533872e-03	1.108779e+00	-4.224199e-02	-2.365487e-02	-1.858712e-02
65            	-2.529954e-03	1.108980e+00	-4.233170e-02	-2.369580e-02	-1.863590e-02
66            	-2.526419e-03	1.109210e+00	-4.239727e-02	-2.372505e-02	-1.867222e-02
67            	-2.523228e-03	1.109466e+00	-4.244377e-02	-2.374511e-02	-1.869866e-02
68            	-2.520331e-03	1.109740e+00	-4.247648e-02	-2.375857e-02	-1.871791e-02
69            	-2.517661e-03	1.110023e+00	-4.250000e-02	-2.376766e-02	-1.873234e-02
70            	-2.515173e-03	1.110305e+00	-4.251848e-02	-2.377442e-02	-1.874407e-02
71            	-2.512809e-03	1.110579e+00	-4.253502e-02	-2.378032e-02	-1.875470e-02
72            	-2.510527e-03	1.110834e+00	-4.255178e-02	-2.378642e-02	-1.876537e-02
73            	-2.508279e-03	1.111061e+00	-4.256978e-02	-2.379317e-02	-1.877661e-02
74            	-2.506040e-03	1.111265e+00	-4.259082e-02	-2.380145e-02	-1.878937e-02
75            	-2.503780e-03	1.111436e+00	-4.261467e-02	-2.381111e-02	-1.880356e-02
76            	-2.501615e-03	1.111575e+00	-4.262922e-02	-2.381622e-02	-1.881299e-02
77            	-2.499207e-03	1.111653e+00	-4.265022e-02	-2.382432e-02	-1.882590e-02
78            	-2.496699e-03	1.111675e+00	-4.267450e-02	-2.383395e-02	-1.884055e-02
79            	-2.494118e-03	1.111648e+00	-4.269915e-02	-2.384370e-02	-1.885546e-02
80            	-2.491498e-03	1.111577e+00	-4.272253e-02	-2.385276e-02	-1.886977e-02
81            	-2.488876e-03	1.111474e+00	-4.274333e-02	-2.386054e-02	-1.888279e-02
82            	-2.486297e-03	1.111350e+00	-4.276097e-02	-2.386678e-02	-1.889419e-02
83            	-2.483810e-03	1.111217e+00	-4.277446e-02	-2.387104e-02	-1.890342e-02
84            	-2.481464e-03	1.111088e+00	-4.278334e-02	-2.387313e-02	-1.891021e-02
85            	-2.479294e-03	1.110971e+00	-4.278679e-02	-2.387269e-02	-1.891410e-02
86            	-2.477412e-03	1.110879e+00	-4.277863e-02	-2.386672e-02	-1.891190e-02
87            	-2.475744e-03	1.110811e+00	-4.276324e-02	-2.385736e-02	-1.890588e-02
88            	-2.474284e-03	1.110770e+00	-4.274347e-02	-2.384602e-02	-1.889745e-02
89            	-2.473020e-03	1.110756e+00	-4.272017e-02	-2.383310e-02	-1.888706e-02
90            	-2.471946e-03	1.110766e+00	-4.269453e-02	-2.381921e-02	-1.887532e-02
91            	-2.471053e-03	1.110802e+00	-4.266717e-02	-2.380464e-02	-1.886253e-02
92            	-2.470331e-03	1.110860e+00	-4.264002e-02	-2.379034e-02	-1.884968e-02
93            	-2.469694e-03	1.110933e+00	-4.261809e-02	-2.377874e-02	-1.883935e-02
94            	-2.469201e-03	1.111021e+00	-4.260207e-02	-2.377023e-02	-1.883183e-02
95            	-2.468825e-03	1.111122e+00	-4.259183e-02	-2.376474e-02	-1.882709e-02
96            	-2.468535e-03	1.111229e+00	-4.258829e-02	-2.376268e-02	-1.882561e-02
97            	-2.468291e-03	1.111339e+00	-4.259119e-02	-2.376388e-02	-1.882730e-02
98            	-2.468071e-03	1.111446e+00	-4.260122e-02	-2.376868e-02	-1.883254e-02
99            	-2.467853e-03	1.111550e+00	-4.261847e-02	-2.377709e-02	-1.884138e-02
100           	-2.467605e-03	1.111646e+00	-4.264362e-02	-2.378941e-02	-1.885420e-02
101           	-2.467288e-03	1.111723e+00	-4.267445e-02	-2.380451e-02	-1.886994e-02
102           	-2.466868e-03	1.111771e+00	-4.270729e-02	-2.382051e-02	-1.888678e-02
103           	-2.466324e-03	1.111785e+00	-4.273777e-02	-2.383521e-02	-1.890256e-02
104           	-2.465655e-03	1.111766e+00	-4.276381e-02	-2.384756e-02	-1.891625e-02
105           	-2.464885e-03	1.111718e+00	-4.278378e-02	-2.385677e-02	-1.892701e-02
106           	-2.464039e-03	1.111654e+00	-4.279836e-02	-2.386322e-02	-1.893514e-02
107           	-2.463182e-03	1.111575e+00	-4.280699e-02	-2.386668e-02	-1.894032e-02
108           	-2.462356e-03	1.111492e+00	-4.281009e-02	-2.386740e-02	-1.894269e-02
109           	-2.461595e-03	1.111413e+00	-4.280842e-02	-2.386580e-02	-1.894261e-02
110           	-2.460921e-03	1.111346e+00	-4.280375e-02	-2.386280e-02	-1.894095e-02
111           	-2.460340e-03	1.111293e+00	-4.279654e-02	-2.385861e-02	-1.893793e-02
112           	-2.459849e-03	1.111254e+00	-4.278783e-02	-2.385376e-02	-1.893406e-02
113           	-2.459455e-03	1.111228e+00	-4.277646e-02	-2.384768e-02	-1.892877e-02
114           	-2.459138e-03	1.111215e+00	-4.276361e-02	-2.384094e-02	-1.892267e-02
115           	-2.458900e-03	1.111214e+00	-4.274969e-02	-2.383375e-02	-1.891595e-02
116           	-2.458734e-03	1.111228e+00	-4.273721e-02	-2.382734e-02	-1.890987e-02
117           	-2.458657e-03	1.111255e+00	-4.272676e-02	-2.382204e-02	-1.890472e-02
118           	-2.458659e-03	1.111299e+00	-4.271989e-02	-2.381861e-02	-1.890129e-02
119           	-2.458730e-03	1.111356e+00	-4.271714e-02	-2.381730e-02	-1.889984e-02
120           	-2.458865e-03	1.111425e+00	-4.271970e-02	-2.381872e-02	-1.890099e-02
121           	-2.459031e-03	1.111500e+00	-4.272715e-02	-2.382261e-02	-1.890455e-02
122           	-2.459194e-03	1.111574e+00	-4.273914e-02	-2.382876e-02	-1.891037e-02
123           	-2.459322e-03	1.111639e+00	-4.275377e-02	-2.383621e-02	-1.891756e-02
124           	-2.459395e-03	1.111692e+00	-4.276979e-02	-2.384429e-02	-1.892550e-02
125           	-2.459409e-03	1.111732e+00	-4.278767e-02	-2.385324e-02	-1.893443e-02
126           	-2.459359e-03	1.111760e+00	-4.280793e-02	-2.386332e-02	-1.894460e-02
127           	-2.459229e-03	1.111771e+00	-4.282858e-02	-2.387352e-02	-1.895506e-02
128           	-2.459022e-03	1.111764e+00	-4.284818e-02	-2.388311e-02	-1.896507e-02
129           	-2.458748e-03	1.111742e+00	-4.286478e-02	-2.389114e-02	-1.897364e-02
130           	-2.458429e-03	1.111707e+00	-4.287779e-02	-2.389732e-02	-1.898047e-02
131           	-2.458084e-03	1.111662e+00	-4.288646e-02	-2.390132e-02	-1.898515e-02
132           	-2.457741e-03	1.111615e+00	-4.289159e-02	-2.390354e-02	-1.898805e-02
133           	-2.457418e-03	1.111568e+00	-4.289331e-02	-2.390407e-02	-1.898923e-02
134           	-2.457140e-03	1.111527e+00	-4.289276e-02	-2.390352e-02	-1.898924e-02
135           	-2.456913e-03	1.111493e+00	-4.289012e-02	-2.390198e-02	-1.898815e-02
136           	-2.456727e-03	1.111467e+00	-4.288617e-02	-2.389981e-02	-1.898636e-02
137           	-2.456577e-03	1.111449e+00	-4.288056e-02	-2.389686e-02	-1.898370e-02
138           	-2.456468e-03	1.111438e+00	-4.287384e-02	-2.389339e-02	-1.898045e-02
139           	-2.456404e-03	1.111436e+00	-4.286598e-02	-2.388939e-02	-1.897659e-02
140           	-2.456382e-03	1.111443e+00	-4.285838e-02	-2.388557e-02	-1.897281e-02
141           	-2.456407e-03	1.111459e+00	-4.285138e-02	-2.388210e-02	-1.896928e-02
142           	-2.456477e-03	1.111483e+00	-4.284621e-02	-2.387958e-02	-1.896663e-02
143           	-2.456581e-03	1.111515e+00	-4.284295e-02	-2.387806e-02	-1.896490e-02
144           	-2.456713e-03	1.111551e+00	-4.284251e-02	-2.387797e-02	-1.896454e-02
145           	-2.456854e-03	1.111590e+00	-4.284450e-02	-2.387911e-02	-1.896540e-02
146           	-2.456994e-03	1.111629e+00	-4.284925e-02	-2.388162e-02	-1.896763e-02
147           	-2.457114e-03	1.111664e+00	-4.285561e-02	-2.388492e-02	-1.897069e-02
148           	-2.457212e-03	1.111695e+00	-4.286395e-02	-2.388919e-02	-1.897476e-02
149           	-2.457278e-03	1.111720e+00	-4.287345e-02	-2.389400e-02	-1.897945e-02
150           	-2.457306e-03	1.111737e+00	-4.288431e-02	-2.389946e-02	-1.898485e-02
151           	-2.457290e-03	1.111746e+00	-4.289532e-02	-2.390495e-02	-1.899037e-02
152           	-2.457231e-03	1.111745e+00	-4.290600e-02	-2.391023e-02	-1.899577e-02
153           	-2.457133e-03	1.111737e+00	-4.291515e-02	-2.391471e-02	-1.900044e-02
154           	-2.457008e-03	1.111721e+00	-4.292263e-02	-2.391832e-02	-1.900431e-02
155           	-2.456865e-03	1.111700e+00	-4.292770e-02	-2.392072e-02	-1.900699e-02
156           	-2.456718e-03	1.111676e+00	-4.293092e-02	-2.392218e-02	-1.900874e-02
157           	-2.456576e-03	1.111653e+00	-4.293207e-02	-2.392261e-02	-1.900946e-02
158           	-2.456456e-03	1.111632e+00	-4.293201e-02	-2.392246e-02	-1.900955e-02
159           	-2.456359e-03	1.111616e+00	-4.293053e-02	-2.392162e-02	-1.900890e-02
160           	-2.456286e-03	1.111603e+00	-4.292830e-02	-2.392043e-02	-1.900786e-02
161           	-2.456232e-03	1.111595e+00	-4.292494e-02	-2.391870e-02	-1.900624e-02
162           	-2.456201e-03	1.111592e+00	-4.292107e-02	-2.391673e-02	-1.900433e-02
163           	-2.456193e-03	1.111593e+00	-4.291644e-02	-2.391442e-02	-1.900203e-02
164           	-2.456211e-03	1.111599e+00	-4.291199e-02	-2.391221e-02	-1.899978e-02
165           	-2.456252e-03	1.111610e+00	-4.290773e-02	-2.391012e-02	-1.899761e-02
166           	-2.456321e-03	1.111627e+00	-4.290464e-02	-2.390864e-02	-1.899600e-02
167           	-2.456412e-03	1.111648e+00	-4.290265e-02	-2.390774e-02	-1.899491e-02
168           	-2.456524e-03	1.111673e+00	-4.290267e-02	-2.390786e-02	-1.899481e-02
169           	-2.456650e-03	1.111702e+00	-4.290432e-02	-2.390881e-02	-1.899551e-02
170           	-2.456779e-03	1.111732e+00	-4.290806e-02	-2.391081e-02	-1.899725e-02
171           	-2.456902e-03	1.111762e+00	-4.291329e-02	-2.391354e-02	-1.899974e-02
172           	-2.457010e-03	1.111791e+00	-4.292015e-02	-2.391709e-02	-1.900307e-02
173           	-2.457088e-03	1.111813e+00	-4.292721e-02	-2.392069e-02	-1.900652e-02
174           	-2.457141e-03	1.111831e+00	-4.293453e-02	-2.392441e-02	-1.901013e-02
175           	-2.457172e-03	1.111845e+00	-4.294150e-02	-2.392792e-02	-1.901358e-02
176           	-2.457188e-03	1.111854e+00	-4.294846e-02	-2.393142e-02	-1.901704e-02
177           	-2.457194e-03	1.111862e+00	-4.295525e-02	-2.393482e-02	-1.902043e-02
178           	-2.457189e-03	1.111867e+00	-4.296207e-02	-2.393822e-02	-1.902384e-02
179           	-2.457160e-03	1.111867e+00	-4.296745e-02	-2.394088e-02	-1.902656e-02
180           	-2.457119e-03	1.111865e+00	-4.297173e-02	-2.394298e-02	-1.902875e-02
181           	-2.457078e-03	1.111862e+00	-4.297469e-02	-2.394443e-02	-1.903027e-02
182           	-2.457052e-03	1.111861e+00	-4.297714e-02	-2.394562e-02	-1.903152e-02
183           	-2.457046e-03	1.111864e+00	-4.297908e-02	-2.394658e-02	-1.903249e-02
184           	-2.457063e-03	1.111871e+00	-4.298121e-02	-2.394767e-02	-1.903354e-02
185           	-2.457099e-03	1.111882e+00	-4.298314e-02	-2.394867e-02	-1.903447e-02
186           	-2.457152e-03	1.111896e+00	-4.298543e-02	-2.394987e-02	-1.903556e-02
187           	-2.457214e-03	1.111912e+00	-4.298760e-02	-2.395101e-02	-1.903659e-02
188           	-2.457287e-03	1.111932e+00	-4.299021e-02	-2.395239e-02	-1.903782e-02
189           	-2.457369e-03	1.111954e+00	-4.299290e-02	-2.395382e-02	-1.903908e-02
190           	-2.457467e-03	1.111979e+00	-4.299637e-02	-2.395565e-02	-1.904072e-02
191           	-2.457576e-03	1.112008e+00	-4.300034e-02	-2.395774e-02	-1.904259e-02
192           	-2.457693e-03	1.112039e+00	-4.300555e-02	-2.396047e-02	-1.904508e-02
193           	-2.457819e-03	1.112073e+00	-4.301158e-02	-2.396361e-02	-1.904797e-02
194           	-2.457955e-03	1.112109e+00	-4.301897e-02	-2.396744e-02	-1.905153e-02
195           	-2.458099e-03	1.112147e+00	-4.302705e-02	-2.397163e-02	-1.905543e-02
196           	-2.458237e-03	1.112184e+00	-4.303650e-02	-2.397649e-02	-1.906001e-02
197           	-2.458370e-03	1.112221e+00	-4.304644e-02	-2.398159e-02	-1.906485e-02
198           	-2.458495e-03	1.112256e+00	-4.305733e-02	-2.398716e-02	-1.907017e-02
199           	-2.458608e-03	1.112291e+00	-4.306857e-02	-2.399289e-02	-1.907568e-02
200           	-2.458711e-03	1.112323e+00	-4.308054e-02	-2.399898e-02	-1.908156e-02
201           	-2.458805e-03	1.112355e+00	-4.309264e-02	-2.400513e-02	-1.908751e-02
202           	-2.458895e-03	1.112385e+00	-4.310525e-02	-2.401152e-02	-1.909373e-02
203           	-2.458978e-03	1.112416e+00	-4.311777e-02	-2.401786e-02	-1.909991e-02
204           	-2.459061e-03	1.112446e+00	-4.313061e-02	-2.402437e-02	-1.910625e-02
205           	-2.459143e-03	1.112476e+00	-4.314325e-02	-2.403077e-02	-1.911248e-02
206           	-2.459230e-03	1.112507e+00	-4.315615e-02	-2.403731e-02	-1.911885e-02
207           	-2.459319e-03	1.112539e+00	-4.316886e-02	-2.404375e-02	-1.912511e-02
208           	-2.459417e-03	1.112573e+00	-4.318191e-02	-2.405037e-02	-1.913154e-02
209           	-2.459521e-03	1.112609e+00	-4.319488e-02	-2.405696e-02	-1.913792e-02
210           	-2.459636e-03	1.112648e+00	-4.320835e-02	-2.406381e-02	-1.914454e-02
211           	-2.459760e-03	1.112689e+00	-4.322194e-02	-2.407073e-02	-1.915121e-02
212           	-2.459884e-03	1.112732e+00	-4.323643e-02	-2.407810e-02	-1.915833e-02
213           	-2.460033e-03	1.112779e+00	-4.325116e-02	-2.408562e-02	-1.916555e-02
214           	-2.460184e-03	1.112828e+00	-4.326707e-02	-2.409372e-02	-1.917335e-02
215           	-2.460354e-03	1.112880e+00	-4.328337e-02	-2.410204e-02	-1.918133e-02
216           	-2.460520e-03	1.112934e+00	-4.330105e-02	-2.411105e-02	-1.919001e-02
217           	-2.460688e-03	1.112989e+00	-4.331943e-02	-2.412040e-02	-1.919903e-02
218           	-2.460874e-03	1.113046e+00	-4.333853e-02	-2.413014e-02	-1.920839e-02
219           	-2.461045e-03	1.113104e+00	-4.335835e-02	-2.414022e-02	-1.921813e-02
220           	-2.461229e-03	1.113163e+00	-4.337870e-02	-2.415058e-02	-1.922812e-02
221           	-2.461396e-03	1.113221e+00	-4.339960e-02	-2.416120e-02	-1.923840e-02
222           	-2.461578e-03	1.113282e+00	-4.342087e-02	-2.417201e-02	-1.924886e-02
223           	-2.461756e-03	1.113342e+00	-4.344223e-02	-2.418287e-02	-1.925936e-02
224           	-2.461917e-03	1.113402e+00	-4.346457e-02	-2.419420e-02	-1.927037e-02
225           	-2.462091e-03	1.113464e+00	-4.348680e-02	-2.420549e-02	-1.928131e-02
226           	-2.462268e-03	1.113526e+00	-4.350968e-02	-2.421711e-02	-1.929257e-02
227           	-2.462440e-03	1.113588e+00	-4.353289e-02	-2.422889e-02	-1.930401e-02
228           	-2.462612e-03	1.113652e+00	-4.355700e-02	-2.424111e-02	-1.931589e-02
229           	-2.462781e-03	1.113716e+00	-4.358162e-02	-2.425359e-02	-1.932803e-02
230           	-2.462954e-03	1.113781e+00	-4.360723e-02	-2.426657e-02	-1.934066e-02
231           	-2.463127e-03	1.113847e+00	-4.363338e-02	-2.427982e-02	-1.935356e-02
232           	-2.463304e-03	1.113915e+00	-4.366051e-02	-2.429356e-02	-1.936695e-02
233           	-2.463483e-03	1.113985e+00	-4.368817e-02	-2.430757e-02	-1.938060e-02
234           	-2.463667e-03	1.114055e+00	-4.371681e-02	-2.432207e-02	-1.939474e-02
235           	-2.463854e-03	1.114128e+00	-4.374594e-02	-2.433683e-02	-1.940912e-02
236           	-2.464046e-03	1.114202e+00	-4.377607e-02	-2.435208e-02	-1.942399e-02
237           	-2.464241e-03	1.114277e+00	-4.380676e-02	-2.436762e-02	-1.943914e-02
238           	-2.464443e-03	1.114355e+00	-4.383853e-02	-2.438371e-02	-1.945482e-02
239           	-2.464648e-03	1.114434e+00	-4.387102e-02	-2.440016e-02	-1.947086e-02
240           	-2.464859e-03	1.114514e+00	-4.390481e-02	-2.441726e-02	-1.948754e-02
241           	-2.465076e-03	1.114597e+00	-4.393962e-02	-2.443489e-02	-1.950474e-02
242           	-2.465299e-03	1.114681e+00	-4.397607e-02	-2.445333e-02	-1.952273e-02
243           	-2.465524e-03	1.114767e+00	-4.401378e-02	-2.447242e-02	-1.954137e-02
244           	-2.465752e-03	1.114854e+00	-4.405329e-02	-2.449240e-02	-1.956089e-02
245           	-2.465979e-03	1.114942e+00	-4.409412e-02	-2.451304e-02	-1.958108e-02
246           	-2.466208e-03	1.115032e+00	-4.413667e-02	-2.453454e-02	-1.960213e-02
247           	-2.466435e-03	1.115122e+00	-4.418041e-02	-2.455664e-02	-1.962377e-02
248           	-2.466663e-03	1.115213e+00	-4.422567e-02	-2.457950e-02	-1.964617e-02
249           	-2.466887e-03	1.115304e+00	-4.427195e-02	-2.460286e-02	-1.966909e-02
250           	-2.467110e-03	1.115396e+00	-4.431967e-02	-2.462695e-02	-1.969273e-02
251           	-2.467329e-03	1.115488e+00	-4.436845e-02	-2.465155e-02	-1.971689e-02
252           	-2.467547e-03	1.115581e+00	-4.441880e-02	-2.467695e-02	-1.974186e-02
253           	-2.467761e-03	1.115674e+00	-4.447037e-02	-2.470295e-02	-1.976742e-02
254           	-2.467977e-03	1.115767e+00	-4.452360e-02	-2.472978e-02	-1.979382e-02
255           	-2.468191e-03	1.115861e+00	-4.457805e-02	-2.475721e-02	-1.982083e-02
256           	-2.468406e-03	1.115955e+00	-4.463409e-02	-2.478545e-02	-1.984864e-02
257           	-2.468617e-03	1.116049e+00	-4.469120e-02	-2.481421e-02	-1.987698e-02
258           	-2.468826e-03	1.116144e+00	-4.474978e-02	-2.484372e-02	-1.990606e-02
259           	-2.469030e-03	1.116238e+00	-4.480940e-02	-2.487373e-02	-1.993567e-02
260           	-2.469234e-03	1.116334e+00	-4.487053e-02	-2.490450e-02	-1.996603e-02
261           	-2.469435e-03	1.116429e+00	-4.493281e-02	-2.493584e-02	-1.999697e-02
262           	-2.469638e-03	1.116525e+00	-4.499681e-02	-2.496804e-02	-2.002876e-02
263           	-2.469840e-03	1.116622e+00	-4.506215e-02	-2.500092e-02	-2.006124e-02
264           	-2.470046e-03	1.116720e+00	-4.512940e-02	-2.503474e-02	-2.009465e-02
265           	-2.470251e-03	1.116819e+00	-4.519815e-02	-2.506932e-02	-2.012882e-02
266           	-2.470455e-03	1.116918e+00	-4.526876e-02	-2.510484e-02	-2.016393e-02
267           	-2.470657e-03	1.117017e+00	-4.534074e-02	-2.514103e-02	-2.019971e-02
268           	-2.470860e-03	1.117116e+00	-4.541436e-02	-2.517804e-02	-2.023632e-02
269           	-2.471058e-03	1.117216e+00	-4.548906e-02	-2.521559e-02	-2.027347e-02
270           	-2.471254e-03	1.117315e+00	-4.556508e-02	-2.525379e-02	-2.031128e-02
271           	-2.471447e-03	1.117414e+00	-4.564198e-02	-2.529244e-02	-2.034954e-02
272           	-2.471639e-03	1.117513e+00	-4.572014e-02	-2.533171e-02	-2.038843e-02
273           	-2.471828e-03	1.117612e+00	-4.579918e-02	-2.537142e-02	-2.042776e-02
274           	-2.472016e-03	1.117711e+00	-4.587956e-02	-2.541180e-02	-2.046776e-02
275           	-2.472186e-03	1.117806e+00	-4.595964e-02	-2.545200e-02	-2.050763e-02
276           	-2.472368e-03	1.117905e+00	-4.604097e-02	-2.549286e-02	-2.054812e-02
277           	-2.472535e-03	1.118001e+00	-4.612265e-02	-2.553386e-02	-2.058879e-02
278           	-2.472700e-03	1.118098e+00	-4.620437e-02	-2.557489e-02	-2.062949e-02
279           	-2.472864e-03	1.118194e+00	-4.628613e-02	-2.561593e-02	-2.067020e-02
280           	-2.473028e-03	1.118291e+00	-4.636850e-02	-2.565728e-02	-2.071122e-02
281           	-2.473191e-03	1.118387e+00	-4.645126e-02	-2.569882e-02	-2.075244e-02
282           	-2.473356e-03	1.118483e+00	-4.653515e-02	-2.574093e-02	-2.079422e-02
283           	-2.473520e-03	1.118579e+00	-4.662029e-02	-2.578366e-02	-2.083662e-02
284           	-2.473684e-03	1.118673e+00	-4.670757e-02	-2.582747e-02	-2.088010e-02
285           	-2.473843e-03	1.118767e+00	-4.679717e-02	-2.587243e-02	-2.092474e-02
286           	-2.474001e-03	1.118861e+00	-4.688992e-02	-2.591896e-02	-2.097096e-02
287           	-2.474153e-03	1.118953e+00	-4.698569e-02	-2.596700e-02	-2.101869e-02
288           	-2.474300e-03	1.119045e+00	-4.708478e-02	-2.601669e-02	-2.106809e-02
289           	-2.474438e-03	1.119136e+00	-4.718656e-02	-2.606772e-02	-2.111884e-02
290           	-2.474568e-03	1.119225e+00	-4.729092e-02	-2.612003e-02	-2.117089e-02
291           	-2.474690e-03	1.119313e+00	-4.739692e-02	-2.617315e-02	-2.122377e-02
292           	-2.474805e-03	1.119401e+00	-4.750434e-02	-2.622698e-02	-2.127737e-02
293           	-2.474913e-03	1.119486e+00	-4.761238e-02	-2.628110e-02	-2.133128e-02
294           	-2.475015e-03	1.119571e+00	-4.772105e-02	-2.633554e-02	-2.138551e-02
295           	-2.475111e-03	1.119655e+00	-4.782977e-02	-2.639000e-02	-2.143978e-02
296           	-2.475201e-03	1.119736e+00	-4.793889e-02	-2.644464e-02	-2.149424e-02
297           	-2.475284e-03	1.119817e+00	-4.804811e-02	-2.649934e-02	-2.154877e-02
298           	-2.475364e-03	1.119896e+00	-4.815794e-02	-2.655433e-02	-2.160361e-02
299           	-2.475437e-03	1.119974e+00	-4.826815e-02	-2.660951e-02	-2.165864e-02
300           	-2.475507e-03	1.120051e+00	-4.837931e-02	-2.666516e-02	-2.171415e-02
301           	-2.475609e-03	1.120128e+00	-4.849040e-02	-2.672081e-02	-2.176959e-02
302           	-2.475696e-03	1.120203e+00	-4.860284e-02	-2.677712e-02	-2.182572e-02
303           	-2.475725e-03	1.120274e+00	-4.871744e-02	-2.683445e-02	-2.188300e-02
304           	-2.475803e-03	1.120358e+00	-4.884091e-02	-2.689626e-02	-2.194465e-02
305           	-2.475884e-03	1.120434e+00	-4.896223e-02	-2.695700e-02	-2.200523e-02
306           	-2.475928e-03	1.120510e+00	-4.908965e-02	-2.702075e-02	-2.206890e-02
307           	-2.475956e-03	1.120585e+00	-4.922069e-02	-2.708630e-02	-2.213439e-02
308           	-2.475963e-03	1.120655e+00	-4.935341e-02	-2.715267e-02	-2.220074e-02
309           	-2.475940e-03	1.120718e+00	-4.948592e-02	-2.721890e-02	-2.226702e-02
310           	-2.475896e-03	1.120776e+00	-4.961783e-02	-2.728481e-02	-2.233302e-02
311           	-2.475837e-03	1.120830e+00	-4.974848e-02	-2.735007e-02	-2.239840e-02
312           	-2.475778e-03	1.120884e+00	-4.987819e-02	-2.741487e-02	-2.246332e-02
313           	-2.475724e-03	1.120937e+00	-5.000655e-02	-2.747900e-02	-2.252755e-02
314           	-2.475683e-03	1.120991e+00	-5.013382e-02	-2.754259e-02	-2.259123e-02
315           	-2.475645e-03	1.121046e+00	-5.025930e-02	-2.760530e-02	-2.265401e-02
316           	-2.475609e-03	1.121100e+00	-5.038336e-02	-2.766729e-02	-2.271607e-02
317           	-2.475571e-03	1.121153e+00	-5.050563e-02	-2.772838e-02	-2.277724e-02
318           	-2.475530e-03	1.121205e+00	-5.062659e-02	-2.778883e-02	-2.283777e-02
319           	-2.475484e-03	1.121256e+00	-5.074639e-02	-2.784868e-02	-2.289771e-02
320           	-2.475436e-03	1.121305e+00	-5.086562e-02	-2.790825e-02	-2.295738e-02
321           	-2.475380e-03	1.121353e+00	-5.098417e-02	-2.796747e-02	-2.301671e-02
322           	-2.475317e-03	1.121399e+00	-5.110258e-02	-2.802661e-02	-2.307597e-02
323           	-2.475248e-03	1.121443e+00	-5.122064e-02	-2.808557e-02	-2.313507e-02
324           	-2.475172e-03	1.121486e+00	-5.133878e-02	-2.814456e-02	-2.319422e-02
325           	-2.475090e-03	1.121527e+00	-5.145670e-02	-2.820344e-02	-2.325326e-02
326           	-2.475006e-03	1.121567e+00	-5.157479e-02	-2.826240e-02	-2.331239e-02
327           	-2.474918e-03	1.121605e+00	-5.169274e-02	-2.832129e-02	-2.337145e-02
328           	-2.474830e-03	1.121643e+00	-5.181087e-02	-2.838027e-02	-2.343061e-02
329           	-2.474740e-03	1.121680e+00	-5.192882e-02	-2.843915e-02	-2.348967e-02
330           	-2.474650e-03	1.121716e+00	-5.204688e-02	-2.849809e-02	-2.354879e-02
331           	-2.474555e-03	1.121751e+00	-5.216465e-02	-2.855688e-02	-2.360777e-02
332           	-2.474458e-03	1.121785e+00	-5.228237e-02	-2.861564e-02	-2.366672e-02
333           	-2.474354e-03	1.121818e+00	-5.239957e-02	-2.867414e-02	-2.372543e-02
334           	-2.474247e-03	1.121849e+00	-5.251642e-02	-2.873245e-02	-2.378396e-02
335           	-2.474136e-03	1.121879e+00	-5.263264e-02	-2.879045e-02	-2.384218e-02
336           	-2.474025e-03	1.121909e+00	-5.274843e-02	-2.884824e-02	-2.390019e-02
337           	-2.473912e-03	1.121937e+00	-5.286354e-02	-2.890568e-02	-2.395786e-02
338           	-2.473798e-03	1.121965e+00	-5.297812e-02	-2.896286e-02	-2.401526e-02
339           	-2.473680e-03	1.121992e+00	-5.309193e-02	-2.901965e-02	-2.407229e-02
340           	-2.473563e-03	1.122018e+00	-5.320532e-02	-2.907623e-02	-2.412910e-02
341           	-2.473443e-03	1.122043e+00	-5.331795e-02	-2.913242e-02	-2.418553e-02
342           	-2.473323e-03	1.122067e+00	-5.343010e-02	-2.918837e-02	-2.424173e-02
343           	-2.473200e-03	1.122091e+00	-5.354146e-02	-2.924393e-02	-2.429753e-02
344           	-2.473076e-03	1.122114e+00	-5.365241e-02	-2.929928e-02	-2.435313e-02
345           	-2.472949e-03	1.122137e+00	-5.376269e-02	-2.935430e-02	-2.440840e-02
346           	-2.472822e-03	1.122158e+00	-5.387274e-02	-2.940919e-02	-2.446355e-02
347           	-2.472692e-03	1.122179e+00	-5.398236e-02	-2.946387e-02	-2.451849e-02
348           	-2.472561e-03	1.122199e+00	-5.409187e-02	-2.951850e-02	-2.457338e-02
349           	-2.472427e-03	1.122219e+00	-5.420096e-02	-2.957291e-02	-2.462806e-02
350           	-2.472292e-03	1.122237e+00	-5.430989e-02	-2.962724e-02	-2.468265e-02
351           	-2.472155e-03	1.122255e+00	-5.441824e-02	-2.968128e-02	-2.473697e-02
352           	-2.472019e-03	1.122273e+00	-5.452631e-02	-2.973517e-02	-2.479113e-02