# Residuals   
# Time        	p             	Ux            	Uy            	Uz            
1             	1.000000e+00	4.437200e-01	1.000000e+00	3.979220e-01
2             	3.838490e-01	5.996400e-01	2.569690e-01	5.956110e-01
3             	4.507530e-02	4.869610e-01	1.557280e-01	4.598030e-01
4             	5.526550e-02	3.317240e-01	1.018380e-01	2.987750e-01
5             	8.839060e-02	2.576310e-01	7.818480e-02	2.384840e-01
6             	1.234490e-01	2.168150e-01	6.305760e-02	2.081460e-01
7             	1.349830e-01	1.831750e-01	5.416950e-02	1.758540e-01
8             	1.213610e-01	1.528180e-01	4.828100e-02	1.467270e-01
9             	1.073110e-01	1.278250e-01	4.245110e-02	1.171400e-01
10            	8.092160e-02	1.183990e-01	3.608830e-02	1.061130e-01
11            	6.421470e-02	1.091950e-01	3.039540e-02	1.011730e-01
12            	5.790950e-02	9.648730e-02	2.579140e-02	9.144220e-02
13            	5.629680e-02	8.223070e-02	2.257360e-02	7.920710e-02
14            	5.678730e-02	7.171610e-02	2.036780e-02	6.961030e-02
15            	6.167330e-02	6.504440e-02	1.882110e-02	6.326790e-02
16            	6.549090e-02	6.074970e-02	1.717670e-02	5.764650e-02
17            	6.840380e-02	5.716280e-02	1.563220e-02	5.317970e-02
18            	6.971780e-02	5.381340e-02	1.404660e-02	5.021790e-02
19            	7.082350e-02	5.098470e-02	1.244360e-02	4.801120e-02
20            	7.050520e-02	4.845900e-02	1.104620e-02	4.591250e-02
21            	6.939730e-02	4.618690e-02	1.019980e-02	4.399480e-02
22            	6.879920e-02	4.421770e-02	9.619070e-03	4.259690e-02
23            	7.052890e-02	4.293060e-02	9.366350e-03	4.213730e-02
24            	7.378610e-02	4.214180e-02	9.189800e-03	4.168740e-02
25            	7.611420e-02	4.146840e-02	8.971460e-03	4.099940e-02
26            	7.756060e-02	3.999100e-02	8.531660e-03	3.947250e-02
27            	7.765960e-02	3.852520e-02	8.244390e-03	3.791640e-02
28            	7.787560e-02	3.765880e-02	8.200670e-03	3.736050e-02
29            	7.656560e-02	3.686580e-02	8.085580e-03	3.680770e-02
30            	7.416710e-02	3.619260e-02	7.982560e-03	3.609180e-02
31            	7.227670e-02	3.536160e-02	7.783400e-03	3.547470e-02
32            	7.017240e-02	3.397800e-02	7.473470e-03	3.443580e-02
33            	6.805070e-02	3.242530e-02	7.126690e-03	3.302340e-02
34            	6.677590e-02	3.109200e-02	6.779670e-03	3.149370e-02
35            	6.537740e-02	3.062640e-02	6.534500e-03	3.061320e-02
36            	6.233350e-02	3.002660e-02	6.378030e-03	2.963000e-02
37            	5.900750e-02	2.961800e-02	6.193090e-03	2.865880e-02
38            	5.764550e-02	2.928240e-02	6.017720e-03	2.779780e-02
39            	5.754020e-02	2.949660e-02	5.985940e-03	2.804650e-02
40            	5.828120e-02	3.019070e-02	6.336560e-03	2.920430e-02
41            	5.826050e-02	3.174920e-02	6.852200e-03	3.079490e-02
42            	5.852430e-02	3.411400e-02	7.472900e-03	3.275470e-02
43            	6.005160e-02	3.664010e-02	8.115850e-03	3.488430e-02
44            	6.361620e-02	3.927030e-02	8.633510e-03	3.721210e-02
45            	6.697670e-02	4.123440e-02	9.117660e-03	3.949050e-02
46            	6.736780e-02	4.265190e-02	9.531760e-03	4.112550e-02
47            	6.923140e-02	4.229470e-02	9.504920e-03	4.084010e-02
48            	7.216070e-02	4.148560e-02	9.191320e-03	3.957320e-02
49            	7.384500e-02	4.035670e-02	8.936510e-03	3.878510e-02
50            	7.339950e-02	3.893130e-02	8.875210e-03	3.789600e-02
51            	7.266240e-02	3.872540e-02	9.044340e-03	3.762260e-02
52            	7.291970e-02	3.907730e-02	9.234150e-03	3.800850e-02
53            	7.278560e-02	4.000410e-02	9.317640e-03	3.917130e-02
54            	7.275670e-02	4.126110e-02	9.703200e-03	4.161350e-02
55            	7.336700e-02	4.285530e-02	1.018950e-02	4.489230e-02
56            	7.483570e-02	4.590010e-02	1.088540e-02	4.804260e-02
57            	7.591800e-02	5.093720e-02	1.193310e-02	5.238510e-02
58            	7.799940e-02	5.493850e-02	1.286440e-02	5.533520e-02
59            	7.972140e-02	5.940560e-02	1.403940e-02	5.924630e-02
60            	8.176000e-02	6.368570e-02	1.504860e-02	6.337560e-02
61            	8.536420e-02	6.620980e-02	1.592210e-02	6.674850e-02
62            	8.698930e-02	6.833250e-02	1.654140e-02	6.925140e-02
63            	8.805410e-02	6.714170e-02	1.658870e-02	6.759620e-02
64            	8.490180e-02	6.268810e-02	1.608180e-02	6.328010e-02
65            	7.892310e-02	5.732790e-02	1.471080e-02	5.805300e-02
66            	7.428030e-02	5.329740e-02	1.331850e-02	5.432750e-02
67            	7.220520e-02	5.056040e-02	1.241150e-02	5.177460e-02
68            	7.070480e-02	4.875290e-02	1.157280e-02	4.877680e-02
69            	7.159850e-02	4.691100e-02	1.072010e-02	4.524550e-02
70            	7.231960e-02	4.435300e-02	1.011500e-02	4.242250e-02
71            	7.190000e-02	4.221640e-02	9.666000e-03	4.014380e-02
72            	7.102430e-02	4.080550e-02	9.382700e-03	3.908090e-02
73            	6.971040e-02	4.077970e-02	9.433290e-03	3.880240e-02
74            	6.976600e-02	4.040600e-02	9.550750e-03	3.853190e-02
75            	6.883700e-02	3.971510e-02	9.482090e-03	3.767060e-02
76            	6.962750e-02	3.923580e-02	9.469200e-03	3.730120e-02
77            	7.070240e-02	3.967340e-02	9.443440e-03	3.797760e-02
78            	7.119150e-02	4.068260e-02	9.488920e-03	3.956900e-02
79            	7.074490e-02	4.146570e-02	9.795110e-03	4.137100e-02
80            	6.994320e-02	4.272960e-02	1.036780e-02	4.353480e-02
81            	7.135500e-02	4.536410e-02	1.117050e-02	4.612520e-02
82            	7.433310e-02	4.872360e-02	1.190440e-02	4.839450e-02
83            	7.755540e-02	5.215250e-02	1.235060e-02	5.053840e-02
84            	7.939960e-02	5.559690e-02	1.265930e-02	5.262370e-02
85            	8.130120e-02	5.857310e-02	1.327450e-02	5.535930e-02
86            	8.479350e-02	6.127090e-02	1.395240e-02	5.884090e-02
87            	8.607870e-02	6.222780e-02	1.440190e-02	5.983280e-02
88            	8.527220e-02	6.216410e-02	1.486620e-02	6.090750e-02
89            	8.563610e-02	6.064250e-02	1.507640e-02	6.168130e-02
90            	8.802250e-02	5.848170e-02	1.490850e-02	6.136530e-02
91            	8.787460e-02	5.606740e-02	1.461340e-02	5.943110e-02
92            	8.355620e-02	5.516240e-02	1.442680e-02	5.785230e-02
93            	7.958970e-02	5.644150e-02	1.399010e-02	5.640070e-02
94            	7.770050e-02	5.773980e-02	1.358270e-02	5.435130e-02
95            	7.784370e-02	5.793680e-02	1.319710e-02	5.321910e-02
96            	7.815440e-02	5.727120e-02	1.274580e-02	5.257590e-02
97            	7.773990e-02	5.559510e-02	1.233830e-02	5.074770e-02
98            	7.863470e-02	5.462800e-02	1.206290e-02	4.845330e-02
99            	7.915140e-02	5.335550e-02	1.179500e-02	4.692270e-02
100           	7.999170e-02	5.253210e-02	1.180210e-02	4.633150e-02
101           	8.139120e-02	5.301570e-02	1.190680e-02	4.672130e-02
102           	8.010030e-02	5.388580e-02	1.201090e-02	4.795880e-02
103           	7.823310e-02	5.473500e-02	1.197370e-02	4.861970e-02
104           	7.648710e-02	5.414190e-02	1.177050e-02	4.857720e-02
105           	7.399280e-02	5.346710e-02	1.160960e-02	4.845840e-02
106           	7.209780e-02	5.302240e-02	1.167560e-02	4.929870e-02
107           	7.085740e-02	5.305800e-02	1.162370e-02	4.991590e-02
108           	6.936460e-02	5.221950e-02	1.141170e-02	4.956240e-02
109           	6.872360e-02	5.002410e-02	1.111300e-02	4.863890e-02
110           	7.032720e-02	4.830130e-02	1.075880e-02	4.715460e-02
111           	7.212800e-02	4.764750e-02	1.044180e-02	4.600200e-02
112           	7.132610e-02	4.704130e-02	1.033690e-02	4.482720e-02
113           	7.202060e-02	4.797060e-02	1.034320e-02	4.482790e-02
114           	7.587510e-02	5.005360e-02	1.043710e-02	4.579400e-02
115           	8.061290e-02	5.173990e-02	1.064110e-02	4.617310e-02
116           	8.242480e-02	5.447720e-02	1.123230e-02	4.744360e-02
117           	8.219630e-02	5.666110e-02	1.184770e-02	4.900180e-02
118           	8.354360e-02	5.910350e-02	1.293750e-02	5.224780e-02
119           	8.533020e-02	6.162060e-02	1.428740e-02	5.581120e-02
120           	8.816750e-02	6.352480e-02	1.554970e-02	5.946440e-02
121           	9.051170e-02	6.384920e-02	1.623230e-02	6.173100e-02
122           	9.056460e-02	6.094500e-02	1.608560e-02	6.185500e-02
123           	8.654590e-02	5.739830e-02	1.540510e-02	6.066700e-02
124           	8.173910e-02	5.521790e-02	1.455800e-02	5.787450e-02
125           	7.746120e-02	5.503050e-02	1.384010e-02	5.578550e-02
126           	7.492660e-02	5.719670e-02	1.356170e-02	5.393550e-02
127           	7.375640e-02	6.292700e-02	1.391700e-02	5.464730e-02
128           	7.602550e-02	6.749580e-02	1.460000e-02	5.650280e-02
129           	8.019760e-02	7.049480e-02	1.519980e-02	5.860550e-02
130           	8.350650e-02	7.147770e-02	1.573440e-02	5.987650e-02
131           	8.602890e-02	7.118170e-02	1.590710e-02	6.063260e-02
132           	8.749740e-02	6.849410e-02	1.551820e-02	5.974690e-02
133           	8.610220e-02	6.376340e-02	1.480920e-02	5.671000e-02
134           	8.405700e-02	5.987500e-02	1.434920e-02	5.446600e-02
135           	8.207250e-02	5.850310e-02	1.443840e-02	5.492960e-02
136           	7.908510e-02	5.956300e-02	1.463980e-02	5.574730e-02
137           	7.587330e-02	6.242960e-02	1.464490e-02	5.543110e-02
138           	7.499500e-02	6.547650e-02	1.463250e-02	5.487940e-02
139           	7.799080e-02	6.686450e-02	1.477990e-02	5.425730e-02
140           	8.021110e-02	6.507980e-02	1.466090e-02	5.300600e-02
141           	7.943930e-02	6.233370e-02	1.421860e-02	5.198270e-02
142           	7.767760e-02	5.938940e-02	1.360680e-02	5.183890e-02
143           	7.666250e-02	5.545740e-02	1.277830e-02	5.163110e-02
144           	7.583020e-02	5.227540e-02	1.193380e-02	5.076840e-02
145           	7.366490e-02	5.086780e-02	1.125260e-02	4.975690e-02
146           	6.999890e-02	4.903610e-02	1.088480e-02	4.728040e-02
147           	6.546070e-02	4.767680e-02	1.074890e-02	4.490630e-02
148           	6.290490e-02	4.662840e-02	1.069860e-02	4.315100e-02
149           	6.289260e-02	4.540240e-02	1.052130e-02	4.182020e-02
150           	6.198690e-02	4.405450e-02	1.016010e-02	4.026940e-02
151           	6.024670e-02	4.208250e-02	9.491800e-03	3.820200e-02
152           	5.865330e-02	3.978470e-02	8.755720e-03	3.628050e-02
153           	5.724380e-02	3.773360e-02	8.154730e-03	3.506710e-02
154           	5.654210e-02	3.632360e-02	7.683830e-03	3.389340e-02
155           	5.559370e-02	3.484820e-02	7.318080e-03	3.308920e-02
156           	5.456840e-02	3.341270e-02	7.092070e-03	3.250640e-02
157           	5.358540e-02	3.232490e-02	6.900710e-03	3.169380e-02
158           	5.196970e-02	3.192530e-02	6.874510e-03	3.072430e-02
159           	5.069090e-02	3.137060e-02	6.818020e-03	2.979970e-02
160           	4.927300e-02	3.076240e-02	6.731900e-03	2.876950e-02
161           	4.835090e-02	3.039090e-02	6.659110e-03	2.789900e-02
162           	4.803890e-02	2.975000e-02	6.620400e-03	2.729900e-02
163           	4.815770e-02	2.904500e-02	6.540140e-03	2.671280e-02
164           	4.856800e-02	2.855810e-02	6.540460e-03	2.613010e-02
165           	4.939720e-02	2.863240e-02	6.625300e-03	2.639000e-02
166           	5.022050e-02	2.889180e-02	6.668360e-03	2.708420e-02
167           	5.063350e-02	2.929370e-02	6.802110e-03	2.806780e-02
168           	5.072800e-02	2.966650e-02	7.034850e-03	2.935980e-02
169           	5.069440e-02	3.060390e-02	7.412560e-03	3.102050e-02
170           	5.166660e-02	3.203350e-02	7.840630e-03	3.311080e-02
171           	5.242950e-02	3.355780e-02	8.251800e-03	3.523100e-02
172           	5.277480e-02	3.541530e-02	8.692790e-03	3.739140e-02
173           	5.286410e-02	3.737410e-02	9.224520e-03	3.901370e-02
174           	5.406870e-02	3.995710e-02	9.826370e-03	4.042670e-02
175           	5.730060e-02	4.254840e-02	1.035680e-02	4.165720e-02
176           	6.146910e-02	4.339590e-02	1.066250e-02	4.203760e-02
177           	6.441050e-02	4.350940e-02	1.063900e-02	4.190900e-02
178           	6.593300e-02	4.239300e-02	1.043600e-02	4.132530e-02
179           	6.573060e-02	4.029260e-02	1.010070e-02	4.049700e-02
180           	6.507240e-02	3.829660e-02	9.776880e-03	3.944520e-02
181           	6.468910e-02	3.769380e-02	9.519590e-03	3.876680e-02
182           	6.414490e-02	3.815450e-02	9.351650e-03	3.794850e-02
183           	6.192210e-02	3.970560e-02	9.424930e-03	3.746590e-02
184           	5.984460e-02	4.175120e-02	9.719310e-03	3.739640e-02
185           	5.966690e-02	4.381770e-02	9.970040e-03	3.775110e-02
186           	6.003110e-02	4.462380e-02	1.030260e-02	3.838160e-02
187           	5.916790e-02	4.350590e-02	1.054440e-02	3.835380e-02
188           	5.735460e-02	4.074580e-02	1.031980e-02	3.720890e-02
189           	5.417340e-02	3.743560e-02	9.734030e-03	3.571030e-02
190           	5.015690e-02	3.449370e-02	8.984900e-03	3.341120e-02
191           	4.639800e-02	3.272250e-02	8.146800e-03	3.031500e-02
192           	4.268890e-02	3.151780e-02	7.295310e-03	2.793660e-02
193           	3.982780e-02	3.071550e-02	6.563370e-03	2.665490e-02
194           	3.843520e-02	3.011010e-02	6.090680e-03	2.541990e-02
195           	3.820170e-02	2.939930e-02	5.833690e-03	2.461580e-02
196           	3.813300e-02	2.839560e-02	5.710230e-03	2.416600e-02
197           	3.798470e-02	2.716150e-02	5.517070e-03	2.354050e-02
198           	3.752210e-02	2.575800e-02	5.220830e-03	2.265010e-02
199           	3.672470e-02	2.419650e-02	4.876500e-03	2.134240e-02
200           	3.583530e-02	2.224950e-02	4.525230e-03	1.965450e-02
201           	3.464570e-02	2.021740e-02	4.239950e-03	1.804350e-02
202           	3.311990e-02	1.836640e-02	4.003580e-03	1.675210e-02
203           	3.132100e-02	1.697310e-02	3.839140e-03	1.588850e-02
204           	2.951720e-02	1.610040e-02	3.748420e-03	1.565910e-02
205           	2.785780e-02	1.569630e-02	3.693150e-03	1.566260e-02
206           	2.673300e-02	1.562330e-02	3.666190e-03	1.570630e-02
207           	2.641450e-02	1.581070e-02	3.670830e-03	1.572210e-02
208           	2.658400e-02	1.617560e-02	3.714130e-03	1.576450e-02
209           	2.688140e-02	1.658940e-02	3.797840e-03	1.585880e-02
210           	2.713950e-02	1.713050e-02	3.903150e-03	1.606820e-02
211           	2.728810e-02	1.764080e-02	4.025310e-03	1.637380e-02
212           	2.745380e-02	1.785380e-02	4.089690e-03	1.659790e-02
213           	2.743800e-02	1.770050e-02	4.066010e-03	1.654860e-02
214           	2.691160e-02	1.713850e-02	3.967780e-03	1.623020e-02
215           	2.614860e-02	1.606050e-02	3.822320e-03	1.547590e-02
216           	2.513990e-02	1.496090e-02	3.622480e-03	1.460240e-02
217           	2.393910e-02	1.405940e-02	3.388270e-03	1.360950e-02
218           	2.255100e-02	1.351010e-02	3.207150e-03	1.289090e-02
219           	2.112740e-02	1.320300e-02	3.090100e-03	1.217540e-02
220           	1.992480e-02	1.308910e-02	3.031260e-03	1.149710e-02
221           	1.901330e-02	1.301530e-02	3.019480e-03	1.097290e-02
222           	1.828410e-02	1.291020e-02	2.992060e-03	1.058490e-02
223           	1.771710e-02	1.262940e-02	2.913050e-03	1.022510e-02
224           	1.715110e-02	1.201240e-02	2.750920e-03	9.783950e-03
225           	1.650510e-02	1.113660e-02	2.530530e-03	9.291170e-03
226           	1.575160e-02	1.017790e-02	2.303270e-03	8.775900e-03
227           	1.495760e-02	9.354950e-03	2.095480e-03	8.256310e-03
228           	1.425920e-02	8.767970e-03	1.924600e-03	7.839070e-03
229           	1.377180e-02	8.438340e-03	1.808380e-03	7.541400e-03
230           	1.353400e-02	8.351150e-03	1.754240e-03	7.367280e-03
231           	1.339710e-02	8.517520e-03	1.742530e-03	7.343520e-03
232           	1.328840e-02	8.702450e-03	1.751700e-03	7.344520e-03
233           	1.318200e-02	8.827480e-03	1.762500e-03	7.308930e-03
234           	1.298700e-02	8.825040e-03	1.754410e-03	7.219170e-03
235           	1.261800e-02	8.645620e-03	1.714520e-03	7.066650e-03
236           	1.216950e-02	8.241480e-03	1.644460e-03	6.832100e-03
237           	1.167020e-02	7.750730e-03	1.555200e-03	6.578770e-03
238           	1.126410e-02	7.215380e-03	1.463800e-03	6.408330e-03
239           	1.096970e-02	6.751490e-03	1.399980e-03	6.308830e-03
240           	1.084810e-02	6.467290e-03	1.367390e-03	6.320760e-03
241           	1.070790e-02	6.454910e-03	1.357740e-03	6.438010e-03
242           	1.063930e-02	6.558910e-03	1.365230e-03	6.551990e-03
243           	1.058510e-02	6.681910e-03	1.380140e-03	6.608000e-03
244           	1.051010e-02	6.770270e-03	1.391330e-03	6.585250e-03
245           	1.040870e-02	6.767780e-03	1.391150e-03	6.479500e-03
246           	1.023400e-02	6.666330e-03	1.371630e-03	6.303120e-03
247           	9.983080e-03	6.394870e-03	1.328100e-03	6.027900e-03
248           	9.636570e-03	6.064740e-03	1.263160e-03	5.713820e-03
249           	9.202860e-03	5.707940e-03	1.183060e-03	5.365450e-03
250           	8.740820e-03	5.331480e-03	1.098970e-03	5.013310e-03
251           	8.327700e-03	4.953280e-03	1.020370e-03	4.687190e-03
252           	7.959750e-03	4.620320e-03	9.551610e-04	4.388860e-03
253           	7.623530e-03	4.404750e-03	9.064040e-04	4.197550e-03
254           	7.335200e-03	4.264160e-03	8.750990e-04	4.076610e-03
255           	7.083710e-03	4.170300e-03	8.577710e-04	4.021930e-03
256           	6.868210e-03	4.096620e-03	8.524340e-04	4.018510e-03
257           	6.692550e-03	4.046810e-03	8.495120e-04	4.036130e-03
258           	6.561080e-03	4.013010e-03	8.423570e-04	4.039100e-03
259           	6.465500e-03	3.971100e-03	8.275970e-04	4.004660e-03
260           	6.397720e-03	3.910060e-03	8.068250e-04	3.933400e-03
261           	6.337090e-03	3.835290e-03	7.853900e-04	3.837260e-03
262           	6.270670e-03	3.763700e-03	7.682710e-04	3.750480e-03
263           	6.208890e-03	3.705300e-03	7.581030e-04	3.686610e-03
264           	6.181650e-03	3.669230e-03	7.553390e-04	3.640590e-03
265           	6.186820e-03	3.650500e-03	7.586690e-04	3.602490e-03
266           	6.214460e-03	3.655940e-03	7.655310e-04	3.584170e-03
267           	6.258740e-03	3.672500e-03	7.727260e-04	3.587640e-03
268           	6.315240e-03	3.705170e-03	7.786500e-04	3.604780e-03
269           	6.380610e-03	3.756500e-03	7.824000e-04	3.650710e-03
270           	6.447120e-03	3.808310e-03	7.841870e-04	3.710500e-03
271           	6.515780e-03	3.859680e-03	7.847170e-04	3.788300e-03
272           	6.593460e-03	3.908400e-03	7.836550e-04	3.868030e-03
273           	6.681650e-03	3.948160e-03	7.803780e-04	3.939120e-03
274           	6.763610e-03	3.971930e-03	7.745360e-04	3.993130e-03
275           	6.829500e-03	3.988450e-03	7.660780e-04	4.016750e-03
276           	6.878720e-03	4.010050e-03	7.564730e-04	4.021720e-03
277           	6.909600e-03	4.023140e-03	7.483820e-04	4.017650e-03
278           	6.922650e-03	4.039360e-03	7.445170e-04	4.008070e-03
279           	6.923890e-03	4.057610e-03	7.426650e-04	3.993210e-03
280           	6.915410e-03	4.058130e-03	7.407950e-04	3.965540e-03
281           	6.883600e-03	4.030750e-03	7.374560e-04	3.916730e-03
282           	6.825120e-03	3.974460e-03	7.315740e-04	3.845820e-03
283           	6.733070e-03	3.888660e-03	7.200370e-04	3.753520e-03
284           	6.610450e-03	3.776190e-03	7.025510e-04	3.636360e-03
285           	6.448610e-03	3.638650e-03	6.795260e-04	3.492820e-03
286           	6.250040e-03	3.483810e-03	6.519220e-04	3.335100e-03
287           	6.014520e-03	3.316910e-03	6.210050e-04	3.173640e-03
288           	5.751600e-03	3.142010e-03	5.887450e-04	3.014750e-03
289           	5.484380e-03	2.960670e-03	5.573470e-04	2.856620e-03
290           	5.224830e-03	2.791120e-03	5.277680e-04	2.710640e-03
291           	4.968470e-03	2.635900e-03	5.016220e-04	2.582340e-03
292           	4.721460e-03	2.500470e-03	4.789940e-04	2.470660e-03
293           	4.491550e-03	2.387570e-03	4.603140e-04	2.373290e-03
294           	4.278760e-03	2.300200e-03	4.456110e-04	2.295830e-03
295           	4.093260e-03	2.235530e-03	4.336820e-04	2.235500e-03
296           	3.930890e-03	2.191650e-03	4.234980e-04	2.195330e-03
297           	3.797660e-03	2.147970e-03	4.143810e-04	2.156710e-03
298           	3.693730e-03	2.094210e-03	4.052880e-04	2.106050e-03
299           	3.606640e-03	2.043410e-03	3.958820e-04	2.051590e-03
300           	3.528860e-03	1.992240e-03	3.856020e-04	1.994400e-03
301           	3.456840e-03	1.937700e-03	3.750270e-04	1.935810e-03
302           	3.391740e-03	1.882470e-03	3.641110e-04	1.876630e-03
303           	3.332530e-03	1.829430e-03	3.534130e-04	1.822100e-03
304           	3.274760e-03	1.779570e-03	3.431960e-04	1.773220e-03
305           	3.217530e-03	1.735230e-03	3.343320e-04	1.734250e-03
306           	3.163980e-03	1.702140e-03	3.271440e-04	1.706640e-03
307           	3.120690e-03	1.681270e-03	3.215250e-04	1.686130e-03
308           	3.083370e-03	1.679070e-03	3.167050e-04	1.684060e-03
309           	3.052940e-03	1.687020e-03	3.134690e-04	1.690800e-03
310           	3.029900e-03	1.705510e-03	3.126220e-04	1.704910e-03
311           	3.017350e-03	1.733360e-03	3.143720e-04	1.725260e-03
312           	3.019870e-03	1.772100e-03	3.190390e-04	1.750680e-03
313           	3.032550e-03	1.824870e-03	3.274130e-04	1.778390e-03
314           	3.057380e-03	1.887130e-03	3.377270e-04	1.812470e-03
315           	3.089640e-03	1.954530e-03	3.494550e-04	1.853030e-03
316           	3.133870e-03	2.022040e-03	3.607640e-04	1.904430e-03
317           	3.186180e-03	2.092050e-03	3.727320e-04	1.957160e-03
318           	3.245540e-03	2.161650e-03	3.848430e-04	2.006860e-03
319           	3.309030e-03	2.226440e-03	3.974400e-04	2.054960e-03
320           	3.373000e-03	2.285990e-03	4.099140e-04	2.100960e-03
321           	3.433750e-03	2.337080e-03	4.212280e-04	2.141990e-03
322           	3.490680e-03	2.379440e-03	4.307200e-04	2.174860e-03
323           	3.552600e-03	2.414040e-03	4.379770e-04	2.196600e-03
324           	3.590710e-03	2.429900e-03	4.434900e-04	2.215610e-03
325           	3.640260e-03	2.444430e-03	4.459090e-04	2.219790e-03
326           	3.678820e-03	2.440400e-03	4.466950e-04	2.220480e-03
327           	3.715970e-03	2.431040e-03	4.452260e-04	2.213890e-03
328           	3.746070e-03	2.415990e-03	4.421870e-04	2.201520e-03
329           	3.770540e-03	2.396340e-03	4.375800e-04	2.182690e-03
330           	3.793880e-03	2.375780e-03	4.323530e-04	2.165770e-03
331           	3.815780e-03	2.354320e-03	4.266060e-04	2.151530e-03
332           	3.838150e-03	2.335070e-03	4.208470e-04	2.143740e-03
333           	3.859830e-03	2.322410e-03	4.159120e-04	2.139480e-03
334           	3.893100e-03	2.315350e-03	4.117790e-04	2.139460e-03
335           	3.935630e-03	2.318850e-03	4.092020e-04	2.152420e-03
336           	3.975670e-03	2.321580e-03	4.073100e-04	2.172720e-03
337           	4.015970e-03	2.327780e-03	4.058140e-04	2.196010e-03
338           	4.031150e-03	2.329680e-03	4.047260e-04	2.226360e-03
339           	4.052750e-03	2.321990e-03	4.034220e-04	2.241750e-03
340           	4.072260e-03	2.309810e-03	4.034290e-04	2.251330e-03
341           	4.081770e-03	2.287520e-03	4.028000e-04	2.254710e-03
342           	4.080320e-03	2.257290e-03	4.014030e-04	2.249790e-03
343           	4.058700e-03	2.221270e-03	3.977920e-04	2.228340e-03
344           	4.006500e-03	2.168600e-03	3.914680e-04	2.192960e-03
345           	3.927500e-03	2.102960e-03	3.822120e-04	2.141050e-03
346           	3.824620e-03	2.024650e-03	3.705430e-04	2.073010e-03
347           	3.695870e-03	1.936640e-03	3.576590e-04	1.993500e-03
348           	3.545040e-03	1.839460e-03	3.447660e-04	1.903280e-03
349           	3.374190e-03	1.739940e-03	3.331500e-04	1.809840e-03
350           	3.190430e-03	1.652850e-03	3.240150e-04	1.722460e-03
351           	3.008440e-03	1.590420e-03	3.183000e-04	1.649170e-03
352           	2.838380e-03	1.558410e-03	3.167280e-04	1.599520e-03
353           	2.685720e-03	1.558810e-03	3.182980e-04	1.577300e-03
354           	2.548790e-03	1.583140e-03	3.241580e-04	1.571430e-03
355           	2.455630e-03	1.617220e-03	3.305560e-04	1.576660e-03
356           	2.415380e-03	1.649740e-03	3.366230e-04	1.587650e-03
357           	2.415520e-03	1.673830e-03	3.407940e-04	1.600460e-03
358           	2.438900e-03	1.687130e-03	3.441150e-04	1.613710e-03
359           	2.464450e-03	1.687340e-03	3.464760e-04	1.631000e-03
360           	2.485030e-03	1.678130e-03	3.486750e-04	1.649850e-03
361           	2.500590e-03	1.660670e-03	3.492010e-04	1.666110e-03
362           	2.511010e-03	1.638350e-03	3.476420e-04	1.675560e-03
363           	2.505080e-03	1.615240e-03	3.446040e-04	1.673640e-03
364           	2.492360e-03	1.599520e-03	3.401020e-04	1.664430e-03
365           	2.475910e-03	1.587700e-03	3.342490e-04	1.656740e-03
366           	2.462790e-03	1.583620e-03	3.286940e-04	1.653030e-03
367           	2.468490e-03	1.589320e-03	3.251350e-04	1.652300e-03
368           	2.484350e-03	1.598610e-03	3.248600e-04	1.656410e-03
369           	2.515460e-03	1.616270e-03	3.279090e-04	1.663500e-03
370           	2.562200e-03	1.639510e-03	3.335900e-04	1.670280e-03
371           	2.615180e-03	1.668880e-03	3.403710e-04	1.678340e-03
372           	2.666350e-03	1.705950e-03	3.472920e-04	1.691050e-03
373           	2.716670e-03	1.750010e-03	3.538520e-04	1.711760e-03
374           	2.765320e-03	1.797170e-03	3.601490e-04	1.743270e-03
375           	2.825600e-03	1.843120e-03	3.656070e-04	1.785690e-03
376           	2.894660e-03	1.887900e-03	3.713600e-04	1.828150e-03
377           	2.959360e-03	1.930720e-03	3.770350e-04	1.870210e-03
378           	3.037060e-03	1.979210e-03	3.822490e-04	1.908920e-03
379           	3.119540e-03	2.021230e-03	3.880170e-04	1.949290e-03
380           	3.206540e-03	2.061920e-03	3.937230e-04	1.985070e-03
381           	3.295340e-03	2.098470e-03	3.994560e-04	2.018980e-03
382           	3.379690e-03	2.133650e-03	4.043150e-04	2.047310e-03
383           	3.462990e-03	2.153260e-03	4.077860e-04	2.061020e-03
384           	3.539770e-03	2.170190e-03	4.100240e-04	2.073280e-03
385           	3.608100e-03	2.186090e-03	4.108610e-04	2.081030e-03
386           	3.670590e-03	2.197040e-03	4.099420e-04	2.087360e-03
387           	3.720620e-03	2.201570e-03	4.074220e-04	2.086710e-03
388           	3.758370e-03	2.195400e-03	4.039380e-04	2.087660e-03
389           	3.781820e-03	2.176860e-03	3.994590e-04	2.082260e-03
390           	3.787710e-03	2.144920e-03	3.933860e-04	2.067180e-03
391           	3.770540e-03	2.105260e-03	3.858410e-04	2.045220e-03
392           	3.750310e-03	2.053230e-03	3.755570e-04	2.021860e-03
393           	3.706480e-03	1.990530e-03	3.643310e-04	1.977560e-03
394           	3.641680e-03	1.920150e-03	3.512000e-04	1.926630e-03
395           	3.557820e-03	1.841770e-03	3.368370e-04	1.862430e-03
396           	3.451970e-03	1.756710e-03	3.217480e-04	1.790020e-03
397           	3.328510e-03	1.666790e-03	3.060150e-04	1.711330e-03
398           	3.187910e-03	1.574840e-03	2.906990e-04	1.624470e-03
399           	3.031990e-03	1.487750e-03	2.764230e-04	1.537510e-03
400           	2.864210e-03	1.410220e-03	2.645380e-04	1.454360e-03
401           	2.694170e-03	1.347760e-03	2.557290e-04	1.381290e-03
402           	2.527080e-03	1.302910e-03	2.498820e-04	1.323450e-03
403           	2.370370e-03	1.277350e-03	2.482190e-04	1.281820e-03
404           	2.234900e-03	1.269570e-03	2.503800e-04	1.257310e-03
405           	2.131810e-03	1.280790e-03	2.549570e-04	1.250060e-03
406           	2.061700e-03	1.304150e-03	2.609320e-04	1.254000e-03
407           	2.013010e-03	1.331240e-03	2.671580e-04	1.263410e-03
408           	1.986290e-03	1.356900e-03	2.728190e-04	1.272600e-03
409           	1.982010e-03	1.374760e-03	2.768400e-04	1.278040e-03
410           	1.984290e-03	1.381580e-03	2.782070e-04	1.278170e-03
411           	1.988730e-03	1.374200e-03	2.771630e-04	1.272550e-03
412           	1.990110e-03	1.352540e-03	2.728290e-04	1.259940e-03
413           	1.982840e-03	1.317980e-03	2.652760e-04	1.236750e-03
414           	1.965580e-03	1.271980e-03	2.545920e-04	1.202970e-03
415           	1.935620e-03	1.218710e-03	2.417600e-04	1.158680e-03
416           	1.896980e-03	1.162620e-03	2.277740e-04	1.107610e-03
417           	1.851400e-03	1.108000e-03	2.137840e-04	1.055140e-03
418           	1.802010e-03	1.058210e-03	2.009980e-04	1.003170e-03
419           	1.754600e-03	1.017710e-03	1.902040e-04	9.576550e-04
420           	1.714390e-03	9.863120e-04	1.821430e-04	9.209230e-04
421           	1.679540e-03	9.630950e-04	1.765190e-04	8.919920e-04
422           	1.658460e-03	9.479780e-04	1.730630e-04	8.706220e-04
423           	1.640310e-03	9.409450e-04	1.709960e-04	8.605470e-04
424           	1.627470e-03	9.397120e-04	1.698990e-04	8.507920e-04
425           	1.618340e-03	9.429380e-04	1.690040e-04	8.457200e-04
426           	1.617280e-03	9.493870e-04	1.681890e-04	8.469070e-04
427           	1.624410e-03	9.597430e-04	1.677110e-04	8.532840e-04
428           	1.639670e-03	9.737950e-04	1.679760e-04	8.673210e-04
429           	1.663380e-03	9.909640e-04	1.694140e-04	8.878410e-04
430           	1.695880e-03	1.011270e-03	1.719020e-04	9.099460e-04
431           	1.735990e-03	1.032060e-03	1.751520e-04	9.344940e-04
432           	1.775030e-03	1.054470e-03	1.792160e-04	9.594860e-04
433           	1.816140e-03	1.079650e-03	1.833420e-04	9.804540e-04
434           	1.856930e-03	1.096070e-03	1.876650e-04	9.955390e-04
435           	1.894810e-03	1.110690e-03	1.917230e-04	1.010450e-03
436           	1.927260e-03	1.121430e-03	1.947640e-04	1.021970e-03
437           	1.952350e-03	1.129210e-03	1.965190e-04	1.028630e-03
438           	1.970450e-03	1.133380e-03	1.968820e-04	1.030840e-03
439           	1.982560e-03	1.131810e-03	1.958490e-04	1.027560e-03
440           	1.988160e-03	1.125660e-03	1.935490e-04	1.019670e-03
441           	1.987560e-03	1.112740e-03	1.903840e-04	1.010190e-03
442           	1.980970e-03	1.099730e-03	1.862690e-04	9.991580e-04
443           	1.972580e-03	1.084120e-03	1.814850e-04	9.864350e-04
444           	1.962270e-03	1.066790e-03	1.765650e-04	9.724310e-04
445           	1.951770e-03	1.049770e-03	1.717140e-04	9.609100e-04
446           	1.940830e-03	1.033940e-03	1.673910e-04	9.495930e-04