# Residuals   
# Time        	p             	Ux            	Uy            	Uz            
1             	1.000000e+00	1.000000e+00	1.000000e+00	1.000000e+00
2             	1.337260e-01	5.468540e-01	2.303720e-01	5.615480e-01
3             	1.527120e-01	4.958450e-01	1.587950e-01	4.458620e-01
4             	9.833470e-02	3.513690e-01	1.150420e-01	3.104080e-01
5             	9.144330e-02	2.810740e-01	8.675890e-02	2.619210e-01
6             	1.399700e-01	2.380320e-01	6.796400e-02	2.324600e-01
7             	9.203070e-02	2.002090e-01	5.715990e-02	2.017340e-01
8             	8.053190e-02	1.676700e-01	5.090100e-02	1.619220e-01
9             	7.129930e-02	1.403890e-01	4.340460e-02	1.397430e-01
10            	6.449500e-02	1.209950e-01	3.612660e-02	1.277370e-01
11            	6.448300e-02	1.107960e-01	3.015250e-02	1.156440e-01
12            	6.427360e-02	1.028800e-01	2.617220e-02	1.026170e-01
13            	6.431660e-02	9.315440e-02	2.297270e-02	9.131660e-02
14            	6.197740e-02	8.321710e-02	2.050690e-02	8.360870e-02
15            	5.328710e-02	7.435220e-02	1.851810e-02	7.777050e-02
16            	4.940010e-02	6.841870e-02	1.707010e-02	7.332230e-02
17            	4.611850e-02	6.080980e-02	1.594810e-02	6.705200e-02
18            	4.351770e-02	5.627850e-02	1.445730e-02	6.181260e-02
19            	4.283660e-02	5.349240e-02	1.326820e-02	5.820830e-02
20            	4.457370e-02	4.775530e-02	1.202470e-02	5.209540e-02
21            	4.674710e-02	4.319020e-02	1.037440e-02	4.521240e-02
22            	4.709990e-02	3.906350e-02	8.923390e-03	3.913390e-02
23            	4.765570e-02	3.577520e-02	7.914010e-03	3.532670e-02
24            	4.750930e-02	3.305900e-02	7.248590e-03	3.316040e-02
25            	4.802840e-02	3.131930e-02	6.756430e-03	3.146020e-02
26            	4.628340e-02	2.918210e-02	6.486220e-03	2.999680e-02
27            	4.501280e-02	2.789850e-02	6.454070e-03	2.873750e-02
28            	4.414970e-02	2.724120e-02	6.427220e-03	2.855220e-02
29            	4.516510e-02	2.694450e-02	6.361210e-03	2.871770e-02
30            	4.627160e-02	2.713500e-02	6.070310e-03	2.862720e-02
31            	4.733140e-02	2.639250e-02	5.900280e-03	2.714050e-02
32            	4.878540e-02	2.571670e-02	5.823980e-03	2.581230e-02
33            	5.104560e-02	2.466270e-02	5.838310e-03	2.484230e-02
34            	5.428670e-02	2.460250e-02	5.931510e-03	2.467700e-02
35            	5.945460e-02	2.520750e-02	6.216140e-03	2.565260e-02
36            	6.358810e-02	2.714350e-02	6.676840e-03	2.808540e-02
37            	6.611550e-02	2.900940e-02	7.139130e-03	3.088750e-02
38            	6.578970e-02	3.025970e-02	7.528780e-03	3.269450e-02
39            	6.496940e-02	3.072300e-02	7.741570e-03	3.344240e-02
40            	6.706570e-02	3.113130e-02	8.081700e-03	3.424160e-02
41            	6.980130e-02	3.135760e-02	8.603000e-03	3.602370e-02
42            	7.085520e-02	3.233760e-02	8.928440e-03	3.719130e-02
43            	7.028260e-02	3.321920e-02	8.943150e-03	3.659590e-02
44            	6.780950e-02	3.383000e-02	8.646580e-03	3.440940e-02
45            	6.257850e-02	3.254090e-02	8.132600e-03	3.153060e-02
46            	5.816630e-02	3.061310e-02	7.580230e-03	2.955480e-02
47            	5.880550e-02	2.894560e-02	7.085330e-03	2.805340e-02
48            	6.036830e-02	2.722710e-02	6.623790e-03	2.657820e-02
49            	5.938760e-02	2.569240e-02	6.179810e-03	2.488920e-02
50            	5.589070e-02	2.408900e-02	5.661380e-03	2.313760e-02
51            	5.341720e-02	2.242940e-02	5.304250e-03	2.128100e-02
52            	5.067440e-02	2.167260e-02	5.105240e-03	2.003880e-02
53            	4.918390e-02	2.125430e-02	5.028050e-03	1.970170e-02
54            	4.885890e-02	2.078870e-02	4.964780e-03	2.012300e-02
55            	4.995930e-02	2.082870e-02	4.925810e-03	2.092090e-02
56            	5.069910e-02	2.132100e-02	4.898750e-03	2.149670e-02
57            	5.018340e-02	2.179000e-02	4.838580e-03	2.158260e-02
58            	4.907230e-02	2.195810e-02	4.845580e-03	2.191710e-02
59            	4.898700e-02	2.237190e-02	5.009180e-03	2.318090e-02
60            	5.014280e-02	2.252060e-02	5.197990e-03	2.375560e-02
61            	5.222610e-02	2.407290e-02	5.476200e-03	2.532830e-02
62            	5.353850e-02	2.530580e-02	5.591240e-03	2.561600e-02
63            	5.414880e-02	2.736320e-02	5.714960e-03	2.663840e-02
64            	5.400960e-02	2.786740e-02	5.821110e-03	2.648780e-02
65            	5.340170e-02	2.901440e-02	6.103680e-03	2.717100e-02
66            	5.278720e-02	2.993350e-02	6.375310e-03	2.811050e-02
67            	5.400090e-02	3.082310e-02	6.598080e-03	2.948670e-02
68            	5.425110e-02	3.050160e-02	6.724800e-03	2.913840e-02
69            	5.501500e-02	3.022030e-02	6.803350e-03	2.849170e-02
70            	5.500030e-02	3.009540e-02	6.923750e-03	2.895320e-02
71            	5.524820e-02	3.034370e-02	6.970100e-03	2.974780e-02
72            	5.497820e-02	3.001600e-02	6.817810e-03	2.942480e-02
73            	5.468780e-02	2.947830e-02	6.718240e-03	2.811670e-02
74            	5.606770e-02	2.953170e-02	6.700620e-03	2.763930e-02
75            	5.794570e-02	2.987100e-02	6.664870e-03	2.743770e-02
76            	5.981790e-02	3.061340e-02	6.687340e-03	2.750880e-02
77            	5.870210e-02	3.264060e-02	6.686940e-03	2.859960e-02
78            	5.684130e-02	3.430640e-02	6.820070e-03	2.954530e-02
79            	5.393540e-02	3.624330e-02	7.050410e-03	3.083620e-02
80            	5.184120e-02	3.891310e-02	7.509050e-03	3.352830e-02
81            	5.360480e-02	4.131120e-02	8.157710e-03	3.699580e-02
82            	5.814140e-02	4.344560e-02	8.987890e-03	4.052820e-02
83            	6.199560e-02	4.570220e-02	9.850850e-03	4.385840e-02
84            	6.789310e-02	4.755500e-02	1.082020e-02	4.674350e-02
85            	7.488030e-02	4.929360e-02	1.134170e-02	4.832660e-02
86            	7.513510e-02	4.766410e-02	1.073040e-02	4.506350e-02
87            	7.440240e-02	4.337110e-02	1.030350e-02	4.052120e-02
88            	7.004200e-02	4.428730e-02	9.917980e-03	3.971910e-02
89            	6.637830e-02	4.401940e-02	9.422710e-03	3.683630e-02
90            	6.577670e-02	4.445460e-02	8.949500e-03	3.522090e-02
91            	6.609460e-02	4.340500e-02	8.590670e-03	3.479740e-02
92            	6.663640e-02	4.154350e-02	8.443670e-03	3.494010e-02
93            	6.549740e-02	3.889590e-02	8.242860e-03	3.490960e-02
94            	6.291260e-02	3.634440e-02	7.992550e-03	3.420640e-02
95            	5.876120e-02	3.445410e-02	7.756850e-03	3.278690e-02
96            	5.680980e-02	3.376710e-02	7.662980e-03	3.187110e-02
97            	5.659340e-02	3.371820e-02	7.581560e-03	3.146890e-02
98            	5.664540e-02	3.340620e-02	7.326520e-03	3.035820e-02
99            	5.781030e-02	3.261040e-02	7.131980e-03	2.932680e-02
100           	5.763140e-02	3.172630e-02	7.015740e-03	2.921120e-02
101           	5.844360e-02	3.236390e-02	7.011510e-03	2.993280e-02
102           	5.801530e-02	3.262890e-02	7.011150e-03	3.032480e-02
103           	5.729010e-02	3.169990e-02	7.001960e-03	2.924970e-02
104           	5.772880e-02	3.068320e-02	6.839930e-03	2.840590e-02
105           	5.757160e-02	2.974670e-02	6.595870e-03	2.807880e-02
106           	5.756550e-02	2.998400e-02	6.588900e-03	2.877890e-02
107           	5.714670e-02	3.131960e-02	6.856340e-03	2.954830e-02
108           	5.598690e-02	3.443730e-02	7.412510e-03	3.155740e-02
109           	5.705890e-02	3.771810e-02	8.070980e-03	3.345840e-02
110           	5.996850e-02	4.105810e-02	8.684200e-03	3.636090e-02
111           	6.409430e-02	4.294430e-02	9.240330e-03	3.896930e-02
112           	6.871740e-02	4.492040e-02	9.778680e-03	4.187400e-02
113           	7.264640e-02	4.630140e-02	1.014540e-02	4.341680e-02
114           	7.398980e-02	4.654730e-02	1.043890e-02	4.481970e-02
115           	7.334990e-02	4.722080e-02	1.064940e-02	4.728130e-02
116           	7.159920e-02	4.574290e-02	1.037790e-02	4.628940e-02
117           	7.002530e-02	4.368560e-02	9.798270e-03	4.259790e-02
118           	6.772340e-02	4.244260e-02	9.308130e-03	3.963600e-02
119           	6.741560e-02	4.270860e-02	9.131790e-03	3.768000e-02
120           	6.835290e-02	4.493030e-02	9.143190e-03	3.763070e-02
121           	7.106990e-02	4.614200e-02	9.198050e-03	3.822630e-02
122           	7.342390e-02	4.750230e-02	9.449110e-03	3.937840e-02
123           	7.390630e-02	4.774600e-02	9.535730e-03	4.088700e-02
124           	7.090280e-02	4.571070e-02	9.398210e-03	4.142690e-02
125           	6.658730e-02	4.183230e-02	8.953710e-03	3.970160e-02
126           	6.204220e-02	3.908160e-02	8.644290e-03	3.843740e-02
127           	5.903470e-02	3.662360e-02	8.177440e-03	3.500730e-02
128           	5.595920e-02	3.414850e-02	7.475720e-03	3.103720e-02
129           	5.273570e-02	3.283960e-02	6.963040e-03	2.910410e-02
130           	5.096520e-02	3.057540e-02	6.556130e-03	2.741620e-02
131           	5.167200e-02	2.981180e-02	6.401680e-03	2.688280e-02
132           	5.214930e-02	2.904580e-02	6.274890e-03	2.642510e-02
133           	5.100090e-02	2.776550e-02	5.948760e-03	2.534750e-02
134           	5.119430e-02	2.668810e-02	5.670540e-03	2.454150e-02
135           	5.251360e-02	2.608070e-02	5.524010e-03	2.380470e-02
136           	5.254910e-02	2.557600e-02	5.393820e-03	2.350640e-02
137           	5.191730e-02	2.545260e-02	5.306940e-03	2.316260e-02
138           	5.207570e-02	2.602920e-02	5.273070e-03	2.326290e-02
139           	5.217240e-02	2.676510e-02	5.273380e-03	2.392970e-02
140           	5.092990e-02	2.708820e-02	5.412140e-03	2.464810e-02
141           	5.142260e-02	2.723400e-02	5.730620e-03	2.477130e-02
142           	5.183970e-02	2.762960e-02	6.249460e-03	2.525830e-02
143           	5.257800e-02	2.869940e-02	6.829670e-03	2.635700e-02
144           	5.448710e-02	3.052910e-02	7.304670e-03	2.801630e-02
145           	5.733210e-02	3.324800e-02	7.911340e-03	3.044400e-02
146           	5.943780e-02	3.806780e-02	8.858590e-03	3.534160e-02
147           	6.135310e-02	4.266760e-02	9.965050e-03	4.016020e-02
148           	6.472850e-02	4.770380e-02	1.132700e-02	4.653180e-02
149           	6.836790e-02	5.329130e-02	1.289560e-02	5.365260e-02
150           	7.310000e-02	5.541320e-02	1.389380e-02	5.665700e-02
151           	7.203120e-02	5.667910e-02	1.497390e-02	6.141070e-02
152           	7.377440e-02	5.911410e-02	1.576640e-02	6.466850e-02
153           	7.455040e-02	5.925450e-02	1.601430e-02	6.474360e-02
154           	7.077060e-02	6.124860e-02	1.574010e-02	6.393040e-02
155           	6.814890e-02	6.110170e-02	1.510800e-02	5.823710e-02
156           	6.653940e-02	6.160680e-02	1.410100e-02	5.565040e-02
157           	6.757920e-02	5.784550e-02	1.282070e-02	5.134720e-02
158           	6.796370e-02	5.261260e-02	1.189130e-02	4.918810e-02
159           	6.596290e-02	4.750330e-02	1.100600e-02	4.630070e-02
160           	6.048760e-02	4.265260e-02	1.013280e-02	4.310810e-02
161           	5.469640e-02	3.904500e-02	9.411710e-03	3.927550e-02
162           	5.288370e-02	3.734700e-02	8.697450e-03	3.640820e-02
163           	5.181370e-02	3.698610e-02	8.302610e-03	3.481760e-02
164           	5.476500e-02	3.606530e-02	8.185510e-03	3.372990e-02
165           	5.680140e-02	3.648890e-02	8.307100e-03	3.416150e-02
166           	5.767290e-02	3.672630e-02	8.540010e-03	3.484610e-02
167           	5.963570e-02	3.731640e-02	8.644380e-03	3.554060e-02
168           	5.919100e-02	3.740370e-02	8.594010e-03	3.615240e-02
169           	5.991580e-02	3.674690e-02	8.528360e-03	3.768540e-02
170           	5.955950e-02	3.573130e-02	8.461710e-03	3.941650e-02
171           	5.715600e-02	3.453910e-02	8.216640e-03	3.972380e-02
172           	5.443080e-02	3.429760e-02	7.983910e-03	3.952590e-02
173           	5.510170e-02	3.429990e-02	7.801000e-03	3.885910e-02
174           	5.647110e-02	3.656260e-02	7.799870e-03	4.000610e-02
175           	5.795540e-02	3.843600e-02	8.045190e-03	4.093690e-02
176           	6.133990e-02	3.929830e-02	8.342380e-03	4.169030e-02
177           	6.549890e-02	4.123690e-02	8.897740e-03	4.353150e-02
178           	7.071360e-02	4.280840e-02	9.629290e-03	4.535420e-02
179           	7.553940e-02	4.461480e-02	1.047640e-02	4.651130e-02
180           	7.948150e-02	4.706700e-02	1.137150e-02	4.828070e-02
181           	8.049870e-02	5.069220e-02	1.220760e-02	5.150580e-02
182           	7.836240e-02	5.099030e-02	1.244230e-02	5.164210e-02
183           	7.600760e-02	5.141460e-02	1.240280e-02	5.380630e-02
184           	7.049150e-02	4.899780e-02	1.227260e-02	5.381670e-02
185           	6.893710e-02	4.674710e-02	1.195630e-02	5.257430e-02
186           	6.864480e-02	4.518130e-02	1.125980e-02	5.092590e-02
187           	6.802300e-02	4.467130e-02	1.088790e-02	4.984020e-02
188           	6.493540e-02	4.496820e-02	1.085280e-02	4.892880e-02
189           	6.138660e-02	4.279390e-02	1.061810e-02	4.664250e-02
190           	6.005160e-02	3.941380e-02	9.960350e-03	4.348990e-02
191           	6.139680e-02	3.667370e-02	9.401330e-03	4.124800e-02
192           	6.064730e-02	3.531290e-02	8.807790e-03	3.963700e-02
193           	5.863520e-02	3.394100e-02	8.315110e-03	3.667190e-02
194           	5.703530e-02	3.209150e-02	7.720930e-03	3.370100e-02
195           	5.324900e-02	2.991410e-02	7.173630e-03	3.115380e-02
196           	4.831050e-02	2.716110e-02	6.651360e-03	2.912220e-02
197           	4.568980e-02	2.411970e-02	6.111870e-03	2.738390e-02
198           	4.553520e-02	2.215250e-02	5.644300e-03	2.582050e-02
199           	4.527950e-02	2.146390e-02	5.311840e-03	2.415760e-02
200           	4.487770e-02	2.137970e-02	5.179950e-03	2.286540e-02
201           	4.399110e-02	2.135580e-02	5.245170e-03	2.246600e-02
202           	4.324060e-02	2.101500e-02	5.181250e-03	2.256490e-02
203           	4.208890e-02	2.041380e-02	5.002860e-03	2.287260e-02
204           	4.185670e-02	1.904760e-02	4.888550e-03	2.214550e-02
205           	4.189000e-02	1.851630e-02	4.920180e-03	2.092050e-02
206           	4.211860e-02	1.855450e-02	4.881110e-03	2.001220e-02
207           	4.306810e-02	1.878420e-02	4.823610e-03	1.988040e-02
208           	4.403010e-02	1.894200e-02	4.751040e-03	2.016810e-02
209           	4.355380e-02	1.901960e-02	4.638850e-03	2.062760e-02
210           	4.255590e-02	1.939600e-02	4.723440e-03	2.137010e-02
211           	4.226620e-02	2.059690e-02	5.018430e-03	2.279570e-02
212           	4.478000e-02	2.239190e-02	5.497560e-03	2.502030e-02
213           	4.794050e-02	2.487710e-02	6.150380e-03	2.808470e-02
214           	5.188190e-02	2.954820e-02	6.957980e-03	3.234180e-02
215           	5.582870e-02	3.552870e-02	7.917050e-03	3.666530e-02
216           	6.067950e-02	4.139160e-02	8.977480e-03	4.146630e-02
217           	6.468920e-02	4.674060e-02	1.007550e-02	4.624200e-02
218           	6.764050e-02	4.975320e-02	1.084830e-02	4.981540e-02
219           	6.950550e-02	5.223210e-02	1.147270e-02	5.309880e-02
220           	7.200820e-02	5.257590e-02	1.198560e-02	5.413250e-02
221           	7.286260e-02	5.099090e-02	1.230020e-02	5.374170e-02
222           	7.283540e-02	4.817150e-02	1.256380e-02	5.183050e-02
223           	7.159080e-02	4.750990e-02	1.261420e-02	4.809910e-02
224           	6.912150e-02	4.880300e-02	1.222230e-02	4.497930e-02
225           	6.831020e-02	4.928000e-02	1.157480e-02	4.319570e-02
226           	7.011200e-02	4.997430e-02	1.071370e-02	4.337040e-02
227           	6.877680e-02	4.760750e-02	9.712050e-03	4.198610e-02
228           	6.430600e-02	4.300490e-02	8.760530e-03	3.914250e-02
229           	5.928850e-02	3.810310e-02	7.992980e-03	3.510600e-02
230           	5.505790e-02	3.330730e-02	7.399680e-03	3.057620e-02
231           	5.179960e-02	3.012980e-02	6.809180e-03	2.675800e-02
232           	4.874190e-02	2.859170e-02	6.265520e-03	2.459720e-02
233           	4.688530e-02	2.872090e-02	5.990910e-03	2.424820e-02
234           	4.712920e-02	2.922450e-02	5.973880e-03	2.476990e-02
235           	4.796910e-02	2.818660e-02	5.948290e-03	2.460340e-02
236           	5.002540e-02	2.949950e-02	6.060140e-03	2.610770e-02
237           	5.117540e-02	2.870190e-02	5.805040e-03	2.540930e-02
238           	5.052000e-02	2.789910e-02	5.499090e-03	2.446690e-02
239           	4.757790e-02	2.618100e-02	5.181890e-03	2.319620e-02
240           	4.446780e-02	2.379370e-02	4.886180e-03	2.208580e-02
241           	4.251590e-02	2.137830e-02	4.614160e-03	2.118700e-02
242           	4.167610e-02	1.943960e-02	4.462950e-03	2.037270e-02
243           	4.153230e-02	1.873960e-02	4.409360e-03	1.996310e-02
244           	4.113440e-02	1.872290e-02	4.407860e-03	2.014540e-02
245           	4.086910e-02	1.888550e-02	4.419770e-03	2.026730e-02
246           	4.147970e-02	1.931060e-02	4.491610e-03	2.035070e-02
247           	4.264070e-02	1.993770e-02	4.603540e-03	2.047940e-02
248           	4.455400e-02	2.081380e-02	4.816360e-03	2.099230e-02
249           	4.710800e-02	2.217640e-02	5.138240e-03	2.212170e-02
250           	5.036950e-02	2.420240e-02	5.623070e-03	2.425000e-02
251           	5.286660e-02	2.610750e-02	6.169710e-03	2.616970e-02
252           	5.610620e-02	2.788930e-02	6.808200e-03	2.792600e-02
253           	5.783370e-02	3.112220e-02	7.736540e-03	3.175770e-02
254           	6.079610e-02	3.600170e-02	8.735950e-03	3.574010e-02
255           	6.378970e-02	4.524000e-02	1.039630e-02	4.368970e-02
256           	7.021420e-02	5.229240e-02	1.176320e-02	4.864870e-02
257           	7.606140e-02	5.764020e-02	1.303020e-02	5.217820e-02
258           	7.574060e-02	6.772070e-02	1.517890e-02	6.303910e-02
259           	7.933450e-02	7.323570e-02	1.659130e-02	6.559290e-02
260           	8.205770e-02	7.999650e-02	1.786770e-02	6.959220e-02
261           	8.836110e-02	7.309530e-02	1.769620e-02	6.538760e-02
262           	8.607200e-02	6.546870e-02	1.719420e-02	6.129730e-02
263           	7.852400e-02	5.820130e-02	1.607250e-02	5.625380e-02
264           	6.770100e-02	5.669280e-02	1.452920e-02	5.099590e-02
265           	6.149080e-02	5.482870e-02	1.275340e-02	4.659170e-02
266           	6.100710e-02	5.323990e-02	1.120210e-02	4.408930e-02
267           	6.135890e-02	5.067280e-02	1.017150e-02	4.259300e-02
268           	5.998890e-02	4.730270e-02	9.347720e-03	4.106420e-02
269           	5.857280e-02	4.322100e-02	8.630550e-03	3.938950e-02
270           	5.703170e-02	3.892340e-02	7.841760e-03	3.652600e-02
271           	5.263510e-02	3.579460e-02	7.379980e-03	3.317290e-02
272           	4.849130e-02	3.367850e-02	7.107000e-03	3.044000e-02
273           	4.651280e-02	3.161690e-02	6.800770e-03	2.788300e-02
274           	4.590680e-02	3.066660e-02	6.537580e-03	2.683000e-02
275           	4.785680e-02	2.947640e-02	6.352270e-03	2.628400e-02
276           	4.953620e-02	2.889020e-02	6.245870e-03	2.691220e-02
277           	5.194410e-02	2.957720e-02	6.259050e-03	2.799370e-02
278           	5.361440e-02	2.979590e-02	6.238680e-03	2.825120e-02
279           	5.326540e-02	2.876290e-02	6.146880e-03	2.760130e-02
280           	5.086820e-02	2.664730e-02	5.906970e-03	2.622210e-02
281           	5.007650e-02	2.490240e-02	5.588990e-03	2.438650e-02
282           	4.924090e-02	2.388090e-02	5.607350e-03	2.437660e-02
283           	4.894920e-02	2.396440e-02	5.831840e-03	2.463940e-02
284           	4.934440e-02	2.447300e-02	6.091010e-03	2.500940e-02
285           	5.043120e-02	2.577000e-02	6.468340e-03	2.619680e-02
286           	5.160530e-02	2.727470e-02	6.969090e-03	2.820790e-02
287           	5.409510e-02	2.916910e-02	7.597380e-03	3.099230e-02
288           	5.695500e-02	3.103200e-02	8.337250e-03	3.426490e-02
289           	5.861580e-02	3.541920e-02	9.408910e-03	3.963730e-02
290           	6.075880e-02	4.047060e-02	1.057150e-02	4.408060e-02
291           	6.275000e-02	4.961790e-02	1.251400e-02	5.319240e-02
292           	6.688270e-02	5.391450e-02	1.317840e-02	5.623970e-02
293           	6.957710e-02	6.660870e-02	1.532540e-02	6.778980e-02
294           	7.694770e-02	7.031390e-02	1.593120e-02	6.605390e-02
295           	8.177600e-02	7.700700e-02	1.724670e-02	7.018830e-02
296           	8.655810e-02	7.890130e-02	1.866190e-02	7.012170e-02
297           	8.278600e-02	6.693560e-02	1.861340e-02	6.425980e-02
298           	7.766330e-02	5.867580e-02	1.770960e-02	5.884750e-02
299           	6.782520e-02	5.418640e-02	1.598680e-02	5.319100e-02
300           	6.107990e-02	5.092910e-02	1.383230e-02	4.762060e-02
301           	5.858160e-02	4.807730e-02	1.178620e-02	4.334720e-02
302           	5.888770e-02	4.525730e-02	1.025210e-02	4.073530e-02
303           	5.807510e-02	4.251830e-02	9.080590e-03	3.882810e-02
304           	5.485930e-02	3.982060e-02	8.173560e-03	3.700430e-02
305           	5.271600e-02	3.711480e-02	7.571250e-03	3.510610e-02
306           	5.181330e-02	3.469770e-02	7.203090e-03	3.281520e-02
307           	5.135990e-02	3.224190e-02	6.898760e-03	3.015170e-02
308           	5.019090e-02	3.073890e-02	6.756050e-03	2.810870e-02
309           	4.964860e-02	3.020710e-02	6.755450e-03	2.800850e-02
310           	5.119170e-02	3.047940e-02	6.971670e-03	2.912260e-02
311           	5.443700e-02	3.133980e-02	7.220440e-03	3.060060e-02
312           	5.627880e-02	3.139200e-02	7.288050e-03	3.067630e-02
313           	5.496260e-02	3.119620e-02	7.279130e-03	3.075390e-02
314           	5.308120e-02	3.035370e-02	7.276240e-03	3.057010e-02
315           	5.207610e-02	2.924570e-02	7.315380e-03	3.028640e-02
316           	5.353180e-02	2.904990e-02	7.380350e-03	3.097390e-02
317           	5.293050e-02	2.995850e-02	7.563120e-03	3.316800e-02
318           	5.543410e-02	2.936490e-02	7.380120e-03	3.304660e-02
319           	5.607570e-02	2.969250e-02	7.243290e-03	3.439100e-02
320           	5.713590e-02	2.913150e-02	6.907490e-03	3.446630e-02
321           	5.844120e-02	2.848880e-02	6.617590e-03	3.346310e-02
322           	5.771660e-02	2.787380e-02	6.354780e-03	3.193490e-02
323           	5.612300e-02	2.724450e-02	5.990140e-03	2.937550e-02
324           	5.448340e-02	2.672470e-02	5.646350e-03	2.703930e-02
325           	5.311360e-02	2.584380e-02	5.293400e-03	2.505860e-02
326           	5.222240e-02	2.451650e-02	5.056390e-03	2.391240e-02
327           	5.105340e-02	2.387970e-02	4.862380e-03	2.375680e-02
328           	5.142420e-02	2.294000e-02	4.780360e-03	2.311600e-02
329           	5.146130e-02	2.224060e-02	4.658450e-03	2.286560e-02
330           	5.106540e-02	2.138890e-02	4.518580e-03	2.281760e-02
331           	5.093620e-02	2.061830e-02	4.344520e-03	2.227340e-02
332           	5.141980e-02	2.074560e-02	4.262510e-03	2.191520e-02
333           	4.991840e-02	2.234210e-02	4.284640e-03	2.233530e-02
334           	4.906340e-02	2.379330e-02	4.377270e-03	2.272000e-02
335           	4.860050e-02	2.536830e-02	4.688740e-03	2.380970e-02
336           	4.894420e-02	2.735500e-02	5.228960e-03	2.585510e-02
337           	5.053760e-02	2.929180e-02	5.813920e-03	2.781130e-02
338           	5.333510e-02	3.215530e-02	6.561330e-03	3.056710e-02
339           	5.688270e-02	3.539730e-02	7.407430e-03	3.409530e-02
340           	6.044320e-02	3.930530e-02	8.150720e-03	3.782250e-02
341           	6.361480e-02	4.262370e-02	8.843420e-03	4.204880e-02
342           	6.739300e-02	4.344160e-02	9.213790e-03	4.346060e-02
343           	7.152220e-02	4.359420e-02	9.484600e-03	4.388990e-02
344           	7.416940e-02	4.216270e-02	9.580690e-03	4.264180e-02
345           	7.234040e-02	4.052130e-02	9.598560e-03	3.986860e-02
346           	6.811660e-02	4.004540e-02	9.395700e-03	3.675870e-02
347           	6.358720e-02	3.938840e-02	8.866850e-03	3.347550e-02
348           	6.283880e-02	3.880490e-02	8.275450e-03	3.104240e-02
349           	6.086950e-02	3.710290e-02	7.797290e-03	2.982530e-02
350           	5.742310e-02	3.429430e-02	7.245900e-03	2.860110e-02
351           	5.430310e-02	3.059720e-02	6.668890e-03	2.665700e-02
352           	5.230850e-02	2.721280e-02	6.079480e-03	2.474780e-02
353           	4.928560e-02	2.512920e-02	5.801330e-03	2.396350e-02
354           	4.843270e-02	2.501350e-02	5.693760e-03	2.386570e-02
355           	4.969900e-02	2.588650e-02	5.775000e-03	2.435010e-02
356           	5.038850e-02	2.725530e-02	5.925300e-03	2.560200e-02
357           	5.170710e-02	2.907040e-02	6.221300e-03	2.675970e-02
358           	5.290810e-02	3.143600e-02	6.703670e-03	2.855820e-02
359           	5.509930e-02	3.469200e-02	7.275820e-03	3.117030e-02
360           	5.940530e-02	3.788570e-02	7.857430e-03	3.410840e-02
361           	6.342350e-02	4.058430e-02	8.454830e-03	3.796960e-02
362           	6.664020e-02	4.419200e-02	9.176070e-03	4.256550e-02
363           	6.725950e-02	4.660230e-02	9.872550e-03	4.714110e-02
364           	6.829130e-02	4.772330e-02	1.038540e-02	4.968030e-02
365           	7.376030e-02	4.770230e-02	1.045740e-02	4.828410e-02
366           	7.883840e-02	4.744010e-02	1.032700e-02	4.590320e-02
367           	7.830680e-02	4.407380e-02	1.040620e-02	4.313200e-02
368           	7.447310e-02	4.352490e-02	1.041110e-02	4.109270e-02
369           	6.917870e-02	4.486460e-02	9.980340e-03	3.871500e-02
370           	6.704300e-02	4.457340e-02	9.479600e-03	3.727870e-02
371           	6.494700e-02	4.260220e-02	9.078480e-03	3.575960e-02
372           	6.245910e-02	4.012600e-02	8.476740e-03	3.429970e-02
373           	5.969570e-02	3.703490e-02	7.736300e-03	3.265770e-02
374           	5.554990e-02	3.401810e-02	7.069120e-03	3.037970e-02
375           	5.136120e-02	3.138480e-02	6.577210e-03	2.781400e-02
376           	4.850180e-02	2.974030e-02	6.317650e-03	2.573320e-02
377           	4.727930e-02	2.849120e-02	6.029840e-03	2.466410e-02
378           	4.751770e-02	2.721670e-02	5.824410e-03	2.358130e-02
379           	4.842520e-02	2.623230e-02	5.689810e-03	2.364990e-02
380           	5.026940e-02	2.602590e-02	5.634850e-03	2.411410e-02
381           	5.229890e-02	2.631540e-02	5.543430e-03	2.405300e-02
382           	5.171260e-02	2.547220e-02	5.390460e-03	2.365310e-02
383           	4.961160e-02	2.473780e-02	5.239510e-03	2.288160e-02
384           	4.951020e-02	2.463740e-02	5.272120e-03	2.238640e-02
385           	4.879770e-02	2.536470e-02	5.435660e-03	2.320200e-02
386           	4.827440e-02	2.580260e-02	5.560040e-03	2.385120e-02
387           	4.869420e-02	2.561380e-02	5.818240e-03	2.436110e-02
388           	5.054740e-02	2.623410e-02	6.218580e-03	2.624440e-02
389           	5.308490e-02	2.762100e-02	6.673640e-03	2.822010e-02
390           	5.596250e-02	2.946680e-02	7.143460e-03	3.009600e-02
391           	6.117740e-02	3.303540e-02	7.804390e-03	3.180020e-02
392           	6.606350e-02	3.806960e-02	8.724460e-03	3.500380e-02
393           	6.817530e-02	4.291630e-02	9.734880e-03	3.903020e-02
394           	6.905870e-02	4.611340e-02	1.069450e-02	4.306670e-02
395           	7.210570e-02	4.820250e-02	1.143240e-02	4.687330e-02
396           	7.451450e-02	4.893850e-02	1.198690e-02	5.058720e-02
397           	7.666050e-02	4.855410e-02	1.246390e-02	5.196860e-02
398           	7.770230e-02	5.102980e-02	1.287720e-02	5.334280e-02
399           	7.872150e-02	5.490370e-02	1.310650e-02	5.439660e-02
400           	7.767040e-02	5.816100e-02	1.336420e-02	5.503630e-02
401           	7.166420e-02	6.225430e-02	1.349050e-02	5.634520e-02
402           	6.987680e-02	6.356650e-02	1.341810e-02	5.658950e-02
403           	7.230900e-02	6.219890e-02	1.315220e-02	5.439420e-02
404           	7.146020e-02	5.753370e-02	1.270360e-02	5.066710e-02
405           	6.662980e-02	5.162940e-02	1.194400e-02	4.613110e-02
406           	6.003870e-02	4.567810e-02	1.079730e-02	4.244490e-02
407           	5.481230e-02	4.129650e-02	9.519790e-03	3.883240e-02
408           	5.275460e-02	3.881120e-02	8.378170e-03	3.518460e-02
409           	5.285900e-02	3.602360e-02	7.532810e-03	3.203080e-02
410           	5.316390e-02	3.363690e-02	6.959560e-03	2.972430e-02
411           	5.260470e-02	3.218470e-02	6.545660e-03	2.858580e-02
412           	5.194940e-02	3.008250e-02	6.361070e-03	2.739390e-02
413           	5.216390e-02	2.847290e-02	6.255920e-03	2.718130e-02
414           	5.229320e-02	2.758640e-02	6.193570e-03	2.672070e-02
415           	5.120200e-02	2.710100e-02	6.101140e-03	2.627990e-02
416           	5.028130e-02	2.677990e-02	5.864710e-03	2.612350e-02
417           	5.001640e-02	2.570150e-02	5.548100e-03	2.534470e-02
418           	4.856570e-02	2.461060e-02	5.339620e-03	2.444700e-02
419           	4.756570e-02	2.415520e-02	5.304550e-03	2.404490e-02
420           	4.826860e-02	2.438100e-02	5.417950e-03	2.377760e-02
421           	4.925520e-02	2.480160e-02	5.624930e-03	2.381640e-02
422           	5.036010e-02	2.530960e-02	5.982070e-03	2.457530e-02
423           	5.146560e-02	2.599200e-02	6.451410e-03	2.600210e-02
424           	5.420040e-02	2.730240e-02	6.973270e-03	2.795400e-02
425           	5.723550e-02	2.995250e-02	7.548040e-03	3.052380e-02
426           	6.038340e-02	3.356960e-02	8.339230e-03	3.417440e-02
427           	6.452960e-02	3.766310e-02	9.292480e-03	3.792390e-02
428           	6.705780e-02	4.205870e-02	1.035970e-02	4.200140e-02
429           	7.114840e-02	4.555380e-02	1.156670e-02	4.677150e-02
430           	7.388890e-02	4.947560e-02	1.273950e-02	5.157470e-02
431           	7.467110e-02	5.445640e-02	1.387210e-02	5.622670e-02
432           	7.450250e-02	5.956620e-02	1.480670e-02	6.104430e-02
433           	7.701450e-02	6.282450e-02	1.528830e-02	6.370680e-02
434           	7.789270e-02	6.296970e-02	1.552310e-02	6.363120e-02
435           	7.572220e-02	6.307520e-02	1.591660e-02	6.493680e-02
436           	7.751930e-02	6.455090e-02	1.632880e-02	6.676400e-02
437           	7.752960e-02	6.399750e-02	1.624570e-02	6.499250e-02
438           	7.484880e-02	6.023220e-02	1.557030e-02	6.135050e-02
439           	6.845520e-02	5.611670e-02	1.427980e-02	5.701960e-02
440           	6.268810e-02	5.278370e-02	1.267270e-02	5.225240e-02
441           	5.691400e-02	4.554450e-02	1.105840e-02	4.606030e-02
442           	5.672360e-02	4.054040e-02	9.663730e-03	4.137960e-02
443           	5.834230e-02	3.736580e-02	8.568050e-03	3.768860e-02
444           	5.745360e-02	3.521300e-02	7.790700e-03	3.469760e-02
445           	5.412870e-02	3.327080e-02	7.256240e-03	3.176650e-02
446           	5.172980e-02	3.134630e-02	6.909000e-03	2.945720e-02